
     Program PWSCF v.7.2 starts on 18Oct2023 at 12:32:21 

     This program is part of the open-source Quantum ESPRESSO suite
     for quantum simulation of materials; please cite
         "P. Giannozzi et al., J. Phys.:Condens. Matter 21 395502 (2009);
         "P. Giannozzi et al., J. Phys.:Condens. Matter 29 465901 (2017);
         "P. Giannozzi et al., J. Chem. Phys. 152 154105 (2020);
          URL http://www.quantum-espresso.org", 
     in publications or presentations arising from this work. More details at
     http://www.quantum-espresso.org/quote

     Parallel version (MPI), running on     4 processors

     MPI processes distributed on     1 nodes
     9017 MiB available memory on the printing compute node when the environment starts

     Waiting for input...
     Reading input from standard input

     Current dimensions of program PWSCF are:
     Max number of different atomic species (ntypx) = 10
     Max number of k-points (npk) =  40000
     Max angular momentum in pseudopotentials (lmaxx) =  4

     R & G space division:  proc/nbgrp/npool/nimage =       4
     Subspace diagonalization in iterative solution of the eigenvalue problem:
     a serial algorithm will be used


     Parallelization info
     --------------------
     sticks:   dense  smooth     PW     G-vecs:    dense   smooth      PW
     Min         201      90     27                28181     8372    1441
     Max         202      91     28                28200     8387    1464
     Sum         805     361    109               112745    33523    5791

     Using Slab Decomposition



     bravais-lattice index     =            4
     lattice parameter (alat)  =       4.6561  a.u.
     unit-cell volume          =     532.1978 (a.u.)^3
     number of atoms/cell      =            2
     number of atomic types    =            1
     number of electrons       =         8.00
     number of Kohn-Sham states=            8
     kinetic-energy cutoff     =      60.0000  Ry
     charge density cutoff     =     540.0000  Ry
     scf convergence threshold =      1.0E-09
     mixing beta               =       0.1500
     number of iterations used =            8  plain     mixing
     Exchange-correlation= PBE
                           (   1   4   3   4   0   0   0)

     celldm(1)=   4.656142  celldm(2)=   0.000000  celldm(3)=   6.087850
     celldm(4)=   0.000000  celldm(5)=   0.000000  celldm(6)=   0.000000

     crystal axes: (cart. coord. in units of alat)
               a(1) = (   1.000000   0.000000   0.000000 )  
               a(2) = (  -0.500000   0.866025   0.000000 )  
               a(3) = (   0.000000   0.000000   6.087850 )  

     reciprocal axes: (cart. coord. in units 2 pi/alat)
               b(1) = (  1.000000  0.577350 -0.000000 )  
               b(2) = (  0.000000  1.154701  0.000000 )  
               b(3) = (  0.000000 -0.000000  0.164262 )  


     PseudoPot. # 1 for C  read from file:
     ../pseudo/C.pbe-n-rrkjus_psl.0.1.UPF
     MD5 check sum: 755e781ff7af45cab9b490cb71e6d69f
     Pseudo is Ultrasoft + core correction, Zval =  4.0
     Generated using &quot;atomic&quot; code by A. Dal Corso  v.6.3MaX
     Using radial grid of 1073 points,  4 beta functions with: 
                l(1) =   0
                l(2) =   0
                l(3) =   1
                l(4) =   1
     Q(r) pseudized with 0 coefficients 


     atomic species   valence    mass     pseudopotential
        C              4.00    12.01070     C ( 1.00)

     24 Sym. Ops., with inversion, found



   Cartesian axes

     site n.     atom                  positions (alat units)
         1           C   tau(   1) = (  -0.0000005   0.5773506   3.0439251  )
         2           C   tau(   2) = (   0.5000005   0.2886748   3.0439251  )

     number of k points=    19  Marzari-Vanderbilt smearing, width (Ry)=  0.0200
                       cart. coord. in units 2pi/alat
        k(    1) = (   0.0000000   0.0000000   0.0000000), wk =   0.0138889
        k(    2) = (   0.0000000   0.0962250   0.0000000), wk =   0.0833333
        k(    3) = (   0.0000000   0.1924501   0.0000000), wk =   0.0833333
        k(    4) = (   0.0000000   0.2886751   0.0000000), wk =   0.0833333
        k(    5) = (   0.0000000   0.3849002   0.0000000), wk =   0.0833333
        k(    6) = (   0.0000000   0.4811252   0.0000000), wk =   0.0833333
        k(    7) = (   0.0000000  -0.5773503   0.0000000), wk =   0.0416667
        k(    8) = (   0.0833333   0.1443376   0.0000000), wk =   0.0833333
        k(    9) = (   0.0833333   0.2405626   0.0000000), wk =   0.1666667
        k(   10) = (   0.0833333   0.3367877   0.0000000), wk =   0.1666667
        k(   11) = (   0.0833333   0.4330127   0.0000000), wk =   0.1666667
        k(   12) = (   0.0833333   0.5292377   0.0000000), wk =   0.1666667
        k(   13) = (   0.1666667   0.2886751   0.0000000), wk =   0.0833333
        k(   14) = (   0.1666667   0.3849002   0.0000000), wk =   0.1666667
        k(   15) = (   0.1666667   0.4811252   0.0000000), wk =   0.1666667
        k(   16) = (   0.1666667   0.5773503   0.0000000), wk =   0.0833333
        k(   17) = (   0.2500000   0.4330127   0.0000000), wk =   0.0833333
        k(   18) = (   0.2500000   0.5292377   0.0000000), wk =   0.1666667
        k(   19) = (   0.3333333   0.5773503   0.0000000), wk =   0.0277778

     Dense  grid:   112745 G-vectors     FFT dimensions: (  36,  36, 216)

     Smooth grid:    33523 G-vectors     FFT dimensions: (  24,  24, 144)

     Estimated max dynamical RAM per process >      41.21 MB

     Estimated total dynamical RAM >     164.84 MB

     Initial potential from superposition of free atoms

     starting charge       7.9999, renormalised to       8.0000

     negative rho (up, down):  6.834E-07 0.000E+00
     Starting wfcs are    8 randomized atomic wfcs

     total cpu time spent up to now is        1.3 secs

     Self-consistent Calculation

     iteration #  1     ecut=    60.00 Ry     beta= 0.15
     Davidson diagonalization with overlap
     ethr =  1.00E-02,  avg # of iterations =  8.0

     Threshold (ethr) on eigenvalues was too large:
     Diagonalizing with lowered threshold

     Davidson diagonalization with overlap
     ethr =  8.42E-04,  avg # of iterations =  5.7

     negative rho (up, down):  1.810E-08 0.000E+00

     total cpu time spent up to now is        2.8 secs

     total energy              =     -23.96125188 Ry
     estimated scf accuracy    <       0.19163607 Ry

     iteration #  2     ecut=    60.00 Ry     beta= 0.15
     Davidson diagonalization with overlap
     ethr =  2.40E-03,  avg # of iterations =  1.1

     negative rho (up, down):  1.237E-04 0.000E+00

     total cpu time spent up to now is        3.2 secs

     total energy              =     -23.87699321 Ry
     estimated scf accuracy    <       0.13334046 Ry

     iteration #  3     ecut=    60.00 Ry     beta= 0.15
     Davidson diagonalization with overlap
     ethr =  1.67E-03,  avg # of iterations =  4.8

     negative rho (up, down):  5.891E-05 0.000E+00

     total cpu time spent up to now is        3.8 secs

     total energy              =     -23.89792472 Ry
     estimated scf accuracy    <       0.00249676 Ry

     iteration #  4     ecut=    60.00 Ry     beta= 0.15
     Davidson diagonalization with overlap
     c_bands:  2 eigenvalues not converged
     c_bands:  3 eigenvalues not converged
     c_bands:  5 eigenvalues not converged
     c_bands:  5 eigenvalues not converged
     c_bands:  1 eigenvalues not converged
     c_bands:  4 eigenvalues not converged
     c_bands:  1 eigenvalues not converged
     c_bands:  3 eigenvalues not converged
     c_bands:  1 eigenvalues not converged
     c_bands:  3 eigenvalues not converged
     c_bands:  2 eigenvalues not converged
     c_bands:  2 eigenvalues not converged
     c_bands:  1 eigenvalues not converged
     c_bands:  2 eigenvalues not converged
     c_bands:  1 eigenvalues not converged
     ethr =  3.12E-05,  avg # of iterations = 18.7

     negative rho (up, down):  4.841E-05 0.000E+00

     total cpu time spent up to now is        5.8 secs

     total energy              =     -23.91549296 Ry
     estimated scf accuracy    <       0.00472944 Ry

     iteration #  5     ecut=    60.00 Ry     beta= 0.15
     Davidson diagonalization with overlap
     c_bands:  1 eigenvalues not converged
     c_bands:  1 eigenvalues not converged
     ethr =  3.12E-05,  avg # of iterations =  8.0

     negative rho (up, down):  9.000E-05 0.000E+00

     total cpu time spent up to now is        6.6 secs

     total energy              =     -23.90888421 Ry
     estimated scf accuracy    <       0.01251199 Ry

     iteration #  6     ecut=    60.00 Ry     beta= 0.15
     Davidson diagonalization with overlap
     ethr =  3.12E-05,  avg # of iterations =  3.4

     negative rho (up, down):  9.559E-05 0.000E+00

     total cpu time spent up to now is        7.2 secs

     total energy              =     -23.90910384 Ry
     estimated scf accuracy    <       0.00083412 Ry

     iteration #  7     ecut=    60.00 Ry     beta= 0.15
     Davidson diagonalization with overlap
     c_bands:  1 eigenvalues not converged
     c_bands:  1 eigenvalues not converged
     c_bands:  1 eigenvalues not converged
     c_bands:  2 eigenvalues not converged
     c_bands:  1 eigenvalues not converged
     ethr =  1.04E-05,  avg # of iterations = 11.5

     negative rho (up, down):  6.751E-05 0.000E+00

     total cpu time spent up to now is        8.3 secs

     total energy              =     -23.90969890 Ry
     estimated scf accuracy    <       0.00089842 Ry

     iteration #  8     ecut=    60.00 Ry     beta= 0.15
     Davidson diagonalization with overlap
     ethr =  1.04E-05,  avg # of iterations =  4.5

     negative rho (up, down):  6.097E-05 0.000E+00

     total cpu time spent up to now is        8.9 secs

     total energy              =     -23.90983299 Ry
     estimated scf accuracy    <       0.00011172 Ry

     iteration #  9     ecut=    60.00 Ry     beta= 0.15
     Davidson diagonalization with overlap
     ethr =  1.40E-06,  avg # of iterations =  7.0

     negative rho (up, down):  5.312E-05 0.000E+00

     total cpu time spent up to now is        9.6 secs

     total energy              =     -23.90990433 Ry
     estimated scf accuracy    <       0.00000018 Ry

     iteration # 10     ecut=    60.00 Ry     beta= 0.15
     Davidson diagonalization with overlap
     ethr =  2.23E-09,  avg # of iterations = 10.3

     negative rho (up, down):  4.538E-05 0.000E+00

     total cpu time spent up to now is       10.6 secs

     total energy              =     -23.90992094 Ry
     estimated scf accuracy    <       0.00000419 Ry

     iteration # 11     ecut=    60.00 Ry     beta= 0.15
     Davidson diagonalization with overlap
     ethr =  2.23E-09,  avg # of iterations =  1.5

     negative rho (up, down):  4.016E-05 0.000E+00

     total cpu time spent up to now is       11.1 secs

     total energy              =     -23.90991868 Ry
     estimated scf accuracy    <       0.00000389 Ry

     iteration # 12     ecut=    60.00 Ry     beta= 0.15
     Davidson diagonalization with overlap
     ethr =  2.23E-09,  avg # of iterations =  4.5

     negative rho (up, down):  3.576E-05 0.000E+00

     total cpu time spent up to now is       11.8 secs

     total energy              =     -23.90991936 Ry
     estimated scf accuracy    <       0.00000039 Ry

     iteration # 13     ecut=    60.00 Ry     beta= 0.15
     Davidson diagonalization with overlap
     ethr =  2.23E-09,  avg # of iterations =  3.5

     negative rho (up, down):  3.158E-05 0.000E+00

     total cpu time spent up to now is       12.3 secs

     total energy              =     -23.90991958 Ry
     estimated scf accuracy    <       0.00000036 Ry

     iteration # 14     ecut=    60.00 Ry     beta= 0.15
     Davidson diagonalization with overlap
     ethr =  2.23E-09,  avg # of iterations =  2.3

     negative rho (up, down):  2.834E-05 0.000E+00

     total cpu time spent up to now is       12.8 secs

     total energy              =     -23.90991995 Ry
     estimated scf accuracy    <       0.00000057 Ry

     iteration # 15     ecut=    60.00 Ry     beta= 0.15
     Davidson diagonalization with overlap
     ethr =  2.23E-09,  avg # of iterations =  3.6

     negative rho (up, down):  2.600E-05 0.000E+00

     total cpu time spent up to now is       13.4 secs

     total energy              =     -23.90991957 Ry
     estimated scf accuracy    <       0.00000138 Ry

     iteration # 16     ecut=    60.00 Ry     beta= 0.15
     Davidson diagonalization with overlap
     ethr =  2.23E-09,  avg # of iterations =  1.1

     negative rho (up, down):  2.410E-05 0.000E+00

     total cpu time spent up to now is       13.8 secs

     total energy              =     -23.90991930 Ry
     estimated scf accuracy    <       0.00000065 Ry

     iteration # 17     ecut=    60.00 Ry     beta= 0.15
     Davidson diagonalization with overlap
     ethr =  2.23E-09,  avg # of iterations =  2.4

     negative rho (up, down):  2.270E-05 0.000E+00

     total cpu time spent up to now is       14.3 secs

     total energy              =     -23.90991926 Ry
     estimated scf accuracy    <       0.00000014 Ry

     iteration # 18     ecut=    60.00 Ry     beta= 0.15
     Davidson diagonalization with overlap
     ethr =  1.72E-09,  avg # of iterations =  3.7

     negative rho (up, down):  2.163E-05 0.000E+00

     total cpu time spent up to now is       14.8 secs

     total energy              =     -23.90991934 Ry
     estimated scf accuracy    <          6.4E-09 Ry

     iteration # 19     ecut=    60.00 Ry     beta= 0.15
     Davidson diagonalization with overlap
     ethr =  8.00E-11,  avg # of iterations =  4.8

     negative rho (up, down):  2.077E-05 0.000E+00

     total cpu time spent up to now is       15.5 secs

     total energy              =     -23.90991936 Ry
     estimated scf accuracy    <       0.00000002 Ry

     iteration # 20     ecut=    60.00 Ry     beta= 0.15
     Davidson diagonalization with overlap
     ethr =  8.00E-11,  avg # of iterations =  1.2

     negative rho (up, down):  2.024E-05 0.000E+00

     total cpu time spent up to now is       15.9 secs

     total energy              =     -23.90991936 Ry
     estimated scf accuracy    <       0.00000003 Ry

     iteration # 21     ecut=    60.00 Ry     beta= 0.15
     Davidson diagonalization with overlap
     ethr =  8.00E-11,  avg # of iterations =  1.0

     negative rho (up, down):  1.981E-05 0.000E+00

     total cpu time spent up to now is       16.4 secs

     total energy              =     -23.90991935 Ry
     estimated scf accuracy    <       0.00000002 Ry

     iteration # 22     ecut=    60.00 Ry     beta= 0.15
     Davidson diagonalization with overlap
     ethr =  8.00E-11,  avg # of iterations =  1.8

     negative rho (up, down):  1.955E-05 0.000E+00

     total cpu time spent up to now is       16.8 secs

     total energy              =     -23.90991935 Ry
     estimated scf accuracy    <       0.00000004 Ry

     iteration # 23     ecut=    60.00 Ry     beta= 0.15
     Davidson diagonalization with overlap
     ethr =  8.00E-11,  avg # of iterations =  1.0

     negative rho (up, down):  1.940E-05 0.000E+00

     total cpu time spent up to now is       17.3 secs

     total energy              =     -23.90991935 Ry
     estimated scf accuracy    <       0.00000005 Ry

     iteration # 24     ecut=    60.00 Ry     beta= 0.15
     Davidson diagonalization with overlap
     ethr =  8.00E-11,  avg # of iterations =  1.0

     negative rho (up, down):  1.913E-05 0.000E+00

     total cpu time spent up to now is       17.7 secs

     total energy              =     -23.90991935 Ry
     estimated scf accuracy    <          7.2E-09 Ry

     iteration # 25     ecut=    60.00 Ry     beta= 0.15
     Davidson diagonalization with overlap
     ethr =  8.00E-11,  avg # of iterations =  1.4

     negative rho (up, down):  1.901E-05 0.000E+00

     total cpu time spent up to now is       18.1 secs

     total energy              =     -23.90991935 Ry
     estimated scf accuracy    <       0.00000001 Ry

     iteration # 26     ecut=    60.00 Ry     beta= 0.15
     Davidson diagonalization with overlap
     ethr =  8.00E-11,  avg # of iterations =  1.9

     negative rho (up, down):  1.908E-05 0.000E+00

     total cpu time spent up to now is       18.6 secs

     End of self-consistent calculation

          k = 0.0000 0.0000 0.0000 (  4149 PWs)   bands (ev):

   -21.2469  -9.3493  -4.7881  -4.7880   1.5011   2.3804   2.7594   4.6754

          k = 0.0000 0.0962 0.0000 (  4170 PWs)   bands (ev):

   -21.0830  -9.1531  -5.4370  -5.1265   1.7246   2.6058   2.9864   4.8990

          k = 0.0000 0.1925 0.0000 (  4194 PWs)   bands (ev):

   -20.5931  -8.5697  -7.0714  -5.9190   2.3951   3.2804   3.6677   5.5666

          k = 0.0000 0.2887 0.0000 (  4186 PWs)   bands (ev):

   -19.7827  -9.1671  -7.6182  -6.7990   3.5104   4.3862   4.8021   5.5509

          k = 0.0000 0.3849 0.0000 (  4180 PWs)   bands (ev):

   -18.6641 -11.3687  -7.5326  -6.3490   3.2007   5.0591   5.9950   6.0104

          k = 0.0000 0.4811 0.0000 (  4172 PWs)   bands (ev):

   -17.2680 -13.4683  -8.0057  -4.9252   1.0634   5.7632   7.0741   7.9847

          k = 0.0000-0.5774 0.0000 (  4184 PWs)   bands (ev):

   -16.0014 -14.9774  -8.1681  -4.0799  -0.0355   5.6854   9.3852   9.5325

          k = 0.0833 0.1443 0.0000 (  4169 PWs)   bands (ev):

   -20.7561  -8.7631  -6.4684  -5.8037   2.1718   3.0560   3.4408   5.3454

          k = 0.0833 0.2406 0.0000 (  4180 PWs)   bands (ev):

   -20.1060  -8.1754  -7.9945  -6.8017   3.0656   3.9524   4.3494   6.2183

          k = 0.0833 0.3368 0.0000 (  4175 PWs)   bands (ev):

   -19.1413 -10.2464  -7.6878  -6.8777   4.2136   4.4017   5.3186   5.7100

          k = 0.0833 0.4330 0.0000 (  4187 PWs)   bands (ev):

   -17.8809 -12.3681  -8.3227  -5.4971   2.0115   6.1531   6.6154   7.0824

          k = 0.0833 0.5292 0.0000 (  4195 PWs)   bands (ev):

   -16.4004 -14.3102  -8.6511  -4.1868   0.2411   6.4219   8.3756   9.2425

          k = 0.1667 0.2887 0.0000 (  4170 PWs)   bands (ev):

   -19.3015  -9.5032  -8.1634  -7.0566   4.1811   4.6713   5.0663   5.4855

          k = 0.1667 0.3849 0.0000 (  4172 PWs)   bands (ev):

   -18.1937 -11.2292  -9.2191  -5.8027   2.7215   5.7338   6.6034   7.0729

          k = 0.1667 0.4811 0.0000 (  4170 PWs)   bands (ev):

   -16.8176 -13.1399  -9.7944  -4.3748   0.8073   7.6970   8.3313   8.4853

          k = 0.1667 0.5774 0.0000 (  4178 PWs)   bands (ev):

   -15.5806 -14.5773  -9.9791  -3.4813  -0.2619   8.2270   9.8985   9.9496

          k = 0.2500 0.4330 0.0000 (  4156 PWs)   bands (ev):

   -16.9654 -12.2623 -10.7031  -4.4590   1.1055   7.4873   8.1956   8.8826

          k = 0.2500 0.5292 0.0000 (  4161 PWs)   bands (ev):

   -15.5424 -13.6842 -11.4101  -3.0721  -0.4160   9.1635   9.5881  10.4894

          k = 0.3333 0.5774 0.0000 (  4152 PWs)   bands (ev):

   -14.3243 -14.3243 -12.3091  -1.7151  -1.7150   8.9033  11.1692  11.1693

     the Fermi energy is    -1.6771 ev

!    total energy              =     -23.90991935 Ry
     estimated scf accuracy    <          9.9E-10 Ry
     smearing contrib. (-TS)   =      -0.00018232 Ry
     internal energy E=F+TS    =     -23.90973703 Ry

     The total energy is F=E-TS. E is the sum of the following terms:
     one-electron contribution =    -157.39460626 Ry
     hartree contribution      =      80.15982396 Ry
     xc contribution           =      -8.30338483 Ry
     ewald contribution        =      61.62843010 Ry

     convergence has been achieved in  26 iterations

     negative rho (up, down):  1.908E-05 0.000E+00

     Forces acting on atoms (cartesian axes, Ry/au):

     atom    1 type  1   force =     0.00000000    0.00000000    0.00000000
     atom    2 type  1   force =     0.00000000    0.00000000    0.00000000
     The non-local contrib.  to forces
     atom    1 type  1   force =     0.00000000    0.00000000    0.00000000
     atom    2 type  1   force =     0.00000000    0.00000000    0.00000000
     The ionic contribution  to forces
     atom    1 type  1   force =     0.00001709   -0.00000986    0.00000000
     atom    2 type  1   force =    -0.00001709    0.00000986    0.00000000
     The local contribution  to forces
     atom    1 type  1   force =     0.00000661   -0.00000382    0.00000000
     atom    2 type  1   force =    -0.00000661    0.00000382    0.00000000
     The core correction contribution to forces
     atom    1 type  1   force =    -0.00000036    0.00000021   -0.00000000
     atom    2 type  1   force =     0.00000036   -0.00000021   -0.00000000
     The Hubbard contrib.    to forces
     atom    1 type  1   force =     0.00000000    0.00000000    0.00000000
     atom    2 type  1   force =     0.00000000    0.00000000    0.00000000
     The SCF correction term to forces
     atom    1 type  1   force =    -0.00000000    0.00000000    0.00000000
     atom    2 type  1   force =     0.00000000   -0.00000000    0.00000000

     Total force =     0.000000     Total SCF correction =     0.000000


     Computing stress (Cartesian axis) and pressure


     negative rho (up, down):  1.908E-05 0.000E+00
          total   stress  (Ry/bohr**3)                   (kbar)     P=       -0.15
  -0.00000025   0.00000000  -0.00000000           -0.04        0.00       -0.00
   0.00000000  -0.00000025  -0.00000000            0.00       -0.04       -0.00
   0.00000000   0.00000000  -0.00000259            0.00        0.00       -0.38


     Writing all to output data dir ./work/gr.save/

     init_run     :      0.87s CPU      0.90s WALL (       1 calls)
     electrons    :     16.81s CPU     17.34s WALL (       1 calls)
     forces       :      0.25s CPU      0.25s WALL (       1 calls)
     stress       :      0.59s CPU      0.60s WALL (       1 calls)

     Called by init_run:
     wfcinit      :      0.14s CPU      0.15s WALL (       1 calls)
     potinit      :      0.32s CPU      0.33s WALL (       1 calls)
     hinit0       :      0.36s CPU      0.36s WALL (       1 calls)

     Called by electrons:
     c_bands      :     12.74s CPU     13.06s WALL (      27 calls)
     sum_band     :      2.57s CPU      2.65s WALL (      27 calls)
     v_of_rho     :      0.82s CPU      0.87s WALL (      27 calls)
     newd         :      0.53s CPU      0.54s WALL (      27 calls)
     mix_rho      :      0.10s CPU      0.11s WALL (      27 calls)

     Called by c_bands:
     init_us_2    :      0.13s CPU      0.13s WALL (    1083 calls)
     init_us_2:cp :      0.13s CPU      0.13s WALL (    1083 calls)
     cegterg      :     12.48s CPU     12.80s WALL (     513 calls)

     Called by *egterg:
     cdiaghg      :      0.16s CPU      0.17s WALL (    2770 calls)
     h_psi        :     10.00s CPU     10.27s WALL (    2808 calls)
     s_psi        :      0.26s CPU      0.27s WALL (    2808 calls)
     g_psi        :      0.04s CPU      0.04s WALL (    2276 calls)

     Called by h_psi:
     h_psi:calbec :      0.52s CPU      0.54s WALL (    2808 calls)
     vloc_psi     :      9.19s CPU      9.44s WALL (    2808 calls)
     add_vuspsi   :      0.26s CPU      0.27s WALL (    2808 calls)

     General routines
     calbec       :      0.72s CPU      0.74s WALL (    3416 calls)
     fft          :      0.96s CPU      0.99s WALL (     375 calls)
     ffts         :      0.22s CPU      0.22s WALL (      54 calls)
     fftw         :      7.59s CPU      7.80s WALL (   31196 calls)
     interpolate  :      0.25s CPU      0.25s WALL (      27 calls)

     Parallel routines

     PWSCF        :     18.62s CPU     20.14s WALL


   This run was terminated on:  12:32:42  18Oct2023            

=------------------------------------------------------------------------------=
   JOB DONE.
=------------------------------------------------------------------------------=
