
     Program PWSCF v.6.7MaX starts on  1Oct2023 at 17:12: 7 

     This program is part of the open-source Quantum ESPRESSO suite
     for quantum simulation of materials; please cite
         "P. Giannozzi et al., J. Phys.:Condens. Matter 21 395502 (2009);
         "P. Giannozzi et al., J. Phys.:Condens. Matter 29 465901 (2017);
          URL http://www.quantum-espresso.org", 
     in publications or presentations arising from this work. More details at
     http://www.quantum-espresso.org/quote

     Parallel version (MPI), running on     1 processors

     MPI processes distributed on     1 nodes
     Waiting for input...
     Reading input from standard input

     Current dimensions of program PWSCF are:
     Max number of different atomic species (ntypx) = 10
     Max number of k-points (npk) =  40000
     Max angular momentum in pseudopotentials (lmaxx) =  3

     Subspace diagonalization in iterative solution of the eigenvalue problem:
     a serial algorithm will be used


     G-vector sticks info
     --------------------
     sticks:   dense  smooth     PW     G-vecs:    dense   smooth      PW
     Sum         583     583    187                 9257     9257    1639



     bravais-lattice index     =            2
     lattice parameter (alat)  =      10.2600  a.u.
     unit-cell volume          =     270.0114 (a.u.)^3
     number of atoms/cell      =            2
     number of atomic types    =            1
     number of electrons       =         8.00
     number of Kohn-Sham states=           20
     kinetic-energy cutoff     =      40.0000  Ry
     charge density cutoff     =     160.0000  Ry
     scf convergence threshold =      1.0E-06
     mixing beta               =       0.6000
     number of iterations used =            8  plain     mixing
     Exchange-correlation= SLA  PZ   NOGX NOGC
                           (   1   1   0   0   0   0   0)

     celldm(1)=  10.260000  celldm(2)=   0.000000  celldm(3)=   0.000000
     celldm(4)=   0.000000  celldm(5)=   0.000000  celldm(6)=   0.000000

     crystal axes: (cart. coord. in units of alat)
               a(1) = (  -0.500000   0.000000   0.500000 )  
               a(2) = (   0.000000   0.500000   0.500000 )  
               a(3) = (  -0.500000   0.500000   0.000000 )  

     reciprocal axes: (cart. coord. in units 2 pi/alat)
               b(1) = ( -1.000000 -1.000000  1.000000 )  
               b(2) = (  1.000000  1.000000  1.000000 )  
               b(3) = ( -1.000000  1.000000 -1.000000 )  


     PseudoPot. # 1 for Si read from file:
     /usr/share/espresso/pseudo/Si.pz-vbc.UPF
     MD5 check sum: a974d1b8727157e37210f3f86afb6210
     Pseudo is Norm-conserving, Zval =  4.0
     Generated by new atomic code, or converted to UPF format
     Using radial grid of  431 points,  2 beta functions with: 
                l(1) =   0
                l(2) =   1

     atomic species   valence    mass     pseudopotential
        Si             4.00    28.08600     Si( 1.00)

     No symmetry found


                                    s                        frac. trans.

      isym =  1     identity                                     

 cryst.   s( 1) = (     1          0          0      )
                  (     0          1          0      )
                  (     0          0          1      )

 cart.    s( 1) = (  1.0000000  0.0000000  0.0000000 )
                  (  0.0000000  1.0000000  0.0000000 )
                  (  0.0000000  0.0000000  1.0000000 )


     point group C_1 (1)    
     there are  1 classes
     the character table:

       E    
A      1.00

     the symmetry operations in each class and the name of the first element:

     E        1
          identity                                               

   Cartesian axes

     site n.     atom                  positions (alat units)
         1           Si  tau(   1) = (   0.0000000   0.0000000   0.0000000  )
         2           Si  tau(   2) = (   0.2500000   0.2500000   0.2500000  )

   Crystallographic axes

     site n.     atom                  positions (cryst. coord.)
         1           Si  tau(   1) = (  0.0000000  0.0000000  0.0000000  )
         2           Si  tau(   2) = ( -0.2500000  0.7500000 -0.2500000  )

     number of k points=    64
                       cart. coord. in units 2pi/alat
        k(    1) = (  -0.1250000   0.1250000   0.1250000), wk =   0.0312500
        k(    2) = (  -0.3750000   0.3750000  -0.1250000), wk =   0.0312500
        k(    3) = (   0.3750000  -0.3750000   0.6250000), wk =   0.0312500
        k(    4) = (   0.1250000  -0.1250000   0.3750000), wk =   0.0312500
        k(    5) = (   0.1250000   0.3750000   0.3750000), wk =   0.0312500
        k(    6) = (  -0.1250000   0.6250000   0.1250000), wk =   0.0312500
        k(    7) = (   0.6250000  -0.1250000   0.8750000), wk =   0.0312500
        k(    8) = (   0.3750000   0.1250000   0.6250000), wk =   0.0312500
        k(    9) = (  -0.6250000  -0.3750000  -0.3750000), wk =   0.0312500
        k(   10) = (  -0.8750000  -0.1250000  -0.6250000), wk =   0.0312500
        k(   11) = (  -0.1250000  -0.8750000   0.1250000), wk =   0.0312500
        k(   12) = (  -0.3750000  -0.6250000  -0.1250000), wk =   0.0312500
        k(   13) = (  -0.3750000  -0.1250000  -0.1250000), wk =   0.0312500
        k(   14) = (  -0.6250000   0.1250000  -0.3750000), wk =   0.0312500
        k(   15) = (   0.1250000  -0.6250000   0.3750000), wk =   0.0312500
        k(   16) = (  -0.1250000  -0.3750000   0.1250000), wk =   0.0312500
        k(   17) = (  -0.3750000  -0.1250000   0.3750000), wk =   0.0312500
        k(   18) = (  -0.6250000   0.1250000   0.1250000), wk =   0.0312500
        k(   19) = (   0.1250000  -0.6250000   0.8750000), wk =   0.0312500
        k(   20) = (  -0.1250000  -0.3750000   0.6250000), wk =   0.0312500
        k(   21) = (  -0.1250000   0.1250000   0.6250000), wk =   0.0312500
        k(   22) = (  -0.3750000   0.3750000   0.3750000), wk =   0.0312500
        k(   23) = (   0.3750000  -0.3750000   1.1250000), wk =   0.0312500
        k(   24) = (   0.1250000  -0.1250000   0.8750000), wk =   0.0312500
        k(   25) = (  -0.8750000  -0.6250000  -0.1250000), wk =   0.0312500
        k(   26) = (  -1.1250000  -0.3750000  -0.3750000), wk =   0.0312500
        k(   27) = (  -0.3750000  -1.1250000   0.3750000), wk =   0.0312500
        k(   28) = (  -0.6250000  -0.8750000   0.1250000), wk =   0.0312500
        k(   29) = (  -0.6250000  -0.3750000   0.1250000), wk =   0.0312500
        k(   30) = (  -0.8750000  -0.1250000  -0.1250000), wk =   0.0312500
        k(   31) = (  -0.1250000  -0.8750000   0.6250000), wk =   0.0312500
        k(   32) = (  -0.3750000  -0.6250000   0.3750000), wk =   0.0312500
        k(   33) = (   0.3750000   0.6250000  -0.3750000), wk =   0.0312500
        k(   34) = (   0.1250000   0.8750000  -0.6250000), wk =   0.0312500
        k(   35) = (   0.8750000   0.1250000   0.1250000), wk =   0.0312500
        k(   36) = (   0.6250000   0.3750000  -0.1250000), wk =   0.0312500
        k(   37) = (   0.6250000   0.8750000  -0.1250000), wk =   0.0312500
        k(   38) = (   0.3750000   1.1250000  -0.3750000), wk =   0.0312500
        k(   39) = (   1.1250000   0.3750000   0.3750000), wk =   0.0312500
        k(   40) = (   0.8750000   0.6250000   0.1250000), wk =   0.0312500
        k(   41) = (  -0.1250000   0.1250000  -0.8750000), wk =   0.0312500
        k(   42) = (  -0.3750000   0.3750000  -1.1250000), wk =   0.0312500
        k(   43) = (   0.3750000  -0.3750000  -0.3750000), wk =   0.0312500
        k(   44) = (   0.1250000  -0.1250000  -0.6250000), wk =   0.0312500
        k(   45) = (   0.1250000   0.3750000  -0.6250000), wk =   0.0312500
        k(   46) = (  -0.1250000   0.6250000  -0.8750000), wk =   0.0312500
        k(   47) = (   0.6250000  -0.1250000  -0.1250000), wk =   0.0312500
        k(   48) = (   0.3750000   0.1250000  -0.3750000), wk =   0.0312500
        k(   49) = (   0.1250000   0.3750000  -0.1250000), wk =   0.0312500
        k(   50) = (  -0.1250000   0.6250000  -0.3750000), wk =   0.0312500
        k(   51) = (   0.6250000  -0.1250000   0.3750000), wk =   0.0312500
        k(   52) = (   0.3750000   0.1250000   0.1250000), wk =   0.0312500
        k(   53) = (   0.3750000   0.6250000   0.1250000), wk =   0.0312500
        k(   54) = (   0.1250000   0.8750000  -0.1250000), wk =   0.0312500
        k(   55) = (   0.8750000   0.1250000   0.6250000), wk =   0.0312500
        k(   56) = (   0.6250000   0.3750000   0.3750000), wk =   0.0312500
        k(   57) = (  -0.3750000  -0.1250000  -0.6250000), wk =   0.0312500
        k(   58) = (  -0.6250000   0.1250000  -0.8750000), wk =   0.0312500
        k(   59) = (   0.1250000  -0.6250000  -0.1250000), wk =   0.0312500
        k(   60) = (  -0.1250000  -0.3750000  -0.3750000), wk =   0.0312500
        k(   61) = (  -0.1250000   0.1250000  -0.3750000), wk =   0.0312500
        k(   62) = (  -0.3750000   0.3750000  -0.6250000), wk =   0.0312500
        k(   63) = (   0.3750000  -0.3750000   0.1250000), wk =   0.0312500
        k(   64) = (   0.1250000  -0.1250000  -0.1250000), wk =   0.0312500

                       cryst. coord.
        k(    1) = (   0.1250000   0.1250000   0.1250000), wk =   0.0312500
        k(    2) = (   0.1250000   0.1250000   0.3750000), wk =   0.0312500
        k(    3) = (   0.1250000   0.1250000  -0.3750000), wk =   0.0312500
        k(    4) = (   0.1250000   0.1250000  -0.1250000), wk =   0.0312500
        k(    5) = (   0.1250000   0.3750000   0.1250000), wk =   0.0312500
        k(    6) = (   0.1250000   0.3750000   0.3750000), wk =   0.0312500
        k(    7) = (   0.1250000   0.3750000  -0.3750000), wk =   0.0312500
        k(    8) = (   0.1250000   0.3750000  -0.1250000), wk =   0.0312500
        k(    9) = (   0.1250000  -0.3750000   0.1250000), wk =   0.0312500
        k(   10) = (   0.1250000  -0.3750000   0.3750000), wk =   0.0312500
        k(   11) = (   0.1250000  -0.3750000  -0.3750000), wk =   0.0312500
        k(   12) = (   0.1250000  -0.3750000  -0.1250000), wk =   0.0312500
        k(   13) = (   0.1250000  -0.1250000   0.1250000), wk =   0.0312500
        k(   14) = (   0.1250000  -0.1250000   0.3750000), wk =   0.0312500
        k(   15) = (   0.1250000  -0.1250000  -0.3750000), wk =   0.0312500
        k(   16) = (   0.1250000  -0.1250000  -0.1250000), wk =   0.0312500
        k(   17) = (   0.3750000   0.1250000   0.1250000), wk =   0.0312500
        k(   18) = (   0.3750000   0.1250000   0.3750000), wk =   0.0312500
        k(   19) = (   0.3750000   0.1250000  -0.3750000), wk =   0.0312500
        k(   20) = (   0.3750000   0.1250000  -0.1250000), wk =   0.0312500
        k(   21) = (   0.3750000   0.3750000   0.1250000), wk =   0.0312500
        k(   22) = (   0.3750000   0.3750000   0.3750000), wk =   0.0312500
        k(   23) = (   0.3750000   0.3750000  -0.3750000), wk =   0.0312500
        k(   24) = (   0.3750000   0.3750000  -0.1250000), wk =   0.0312500
        k(   25) = (   0.3750000  -0.3750000   0.1250000), wk =   0.0312500
        k(   26) = (   0.3750000  -0.3750000   0.3750000), wk =   0.0312500
        k(   27) = (   0.3750000  -0.3750000  -0.3750000), wk =   0.0312500
        k(   28) = (   0.3750000  -0.3750000  -0.1250000), wk =   0.0312500
        k(   29) = (   0.3750000  -0.1250000   0.1250000), wk =   0.0312500
        k(   30) = (   0.3750000  -0.1250000   0.3750000), wk =   0.0312500
        k(   31) = (   0.3750000  -0.1250000  -0.3750000), wk =   0.0312500
        k(   32) = (   0.3750000  -0.1250000  -0.1250000), wk =   0.0312500
        k(   33) = (  -0.3750000   0.1250000   0.1250000), wk =   0.0312500
        k(   34) = (  -0.3750000   0.1250000   0.3750000), wk =   0.0312500
        k(   35) = (  -0.3750000   0.1250000  -0.3750000), wk =   0.0312500
        k(   36) = (  -0.3750000   0.1250000  -0.1250000), wk =   0.0312500
        k(   37) = (  -0.3750000   0.3750000   0.1250000), wk =   0.0312500
        k(   38) = (  -0.3750000   0.3750000   0.3750000), wk =   0.0312500
        k(   39) = (  -0.3750000   0.3750000  -0.3750000), wk =   0.0312500
        k(   40) = (  -0.3750000   0.3750000  -0.1250000), wk =   0.0312500
        k(   41) = (  -0.3750000  -0.3750000   0.1250000), wk =   0.0312500
        k(   42) = (  -0.3750000  -0.3750000   0.3750000), wk =   0.0312500
        k(   43) = (  -0.3750000  -0.3750000  -0.3750000), wk =   0.0312500
        k(   44) = (  -0.3750000  -0.3750000  -0.1250000), wk =   0.0312500
        k(   45) = (  -0.3750000  -0.1250000   0.1250000), wk =   0.0312500
        k(   46) = (  -0.3750000  -0.1250000   0.3750000), wk =   0.0312500
        k(   47) = (  -0.3750000  -0.1250000  -0.3750000), wk =   0.0312500
        k(   48) = (  -0.3750000  -0.1250000  -0.1250000), wk =   0.0312500
        k(   49) = (  -0.1250000   0.1250000   0.1250000), wk =   0.0312500
        k(   50) = (  -0.1250000   0.1250000   0.3750000), wk =   0.0312500
        k(   51) = (  -0.1250000   0.1250000  -0.3750000), wk =   0.0312500
        k(   52) = (  -0.1250000   0.1250000  -0.1250000), wk =   0.0312500
        k(   53) = (  -0.1250000   0.3750000   0.1250000), wk =   0.0312500
        k(   54) = (  -0.1250000   0.3750000   0.3750000), wk =   0.0312500
        k(   55) = (  -0.1250000   0.3750000  -0.3750000), wk =   0.0312500
        k(   56) = (  -0.1250000   0.3750000  -0.1250000), wk =   0.0312500
        k(   57) = (  -0.1250000  -0.3750000   0.1250000), wk =   0.0312500
        k(   58) = (  -0.1250000  -0.3750000   0.3750000), wk =   0.0312500
        k(   59) = (  -0.1250000  -0.3750000  -0.3750000), wk =   0.0312500
        k(   60) = (  -0.1250000  -0.3750000  -0.1250000), wk =   0.0312500
        k(   61) = (  -0.1250000  -0.1250000   0.1250000), wk =   0.0312500
        k(   62) = (  -0.1250000  -0.1250000   0.3750000), wk =   0.0312500
        k(   63) = (  -0.1250000  -0.1250000  -0.3750000), wk =   0.0312500
        k(   64) = (  -0.1250000  -0.1250000  -0.1250000), wk =   0.0312500

     Dense  grid:     9257 G-vectors     FFT dimensions: (  30,  30,  30)

     Dynamical RAM for                 wfc:       0.35 MB

     Dynamical RAM for     wfc (w. buffer):      22.89 MB

     Dynamical RAM for           str. fact:       0.14 MB

     Dynamical RAM for           local pot:       0.00 MB

     Dynamical RAM for          nlocal pot:       0.14 MB

     Dynamical RAM for                qrad:       0.09 MB

     Dynamical RAM for          rho,v,vnew:       1.04 MB

     Dynamical RAM for               rhoin:       0.35 MB

     Dynamical RAM for            rho*nmix:       2.26 MB

     Dynamical RAM for           G-vectors:       0.60 MB

     Dynamical RAM for          h,s,v(r/c):       0.07 MB

     Dynamical RAM for          <psi|beta>:       0.00 MB

     Dynamical RAM for                 psi:       0.70 MB

     Dynamical RAM for                hpsi:       0.70 MB

     Dynamical RAM for      wfcinit/wfcrot:       0.71 MB

     Estimated static dynamical RAM per process >      28.82 MB

     Estimated max dynamical RAM per process >      30.31 MB

     Initial potential from superposition of free atoms

     starting charge    7.99901, renormalised to    8.00000
     Starting wfcs are    8 randomized atomic wfcs +   12 random wfcs

     total cpu time spent up to now is        1.3 secs

     Self-consistent Calculation

     iteration #  1     ecut=    40.00 Ry     beta= 0.60
     Davidson diagonalization with overlap
     ethr =  1.00E-02,  avg # of iterations =  6.6

     Threshold (ethr) on eigenvalues was too large:
     Diagonalizing with lowered threshold

     Davidson diagonalization with overlap
     ethr =  7.69E-04,  avg # of iterations =  1.0

     total cpu time spent up to now is       12.5 secs

     total energy              =     -15.85077356 Ry
     estimated scf accuracy    <       0.06150856 Ry

     iteration #  2     ecut=    40.00 Ry     beta= 0.60
     Davidson diagonalization with overlap
     ethr =  7.69E-04,  avg # of iterations =  1.1

     total cpu time spent up to now is       15.7 secs

     total energy              =     -15.85266614 Ry
     estimated scf accuracy    <       0.00447902 Ry

     iteration #  3     ecut=    40.00 Ry     beta= 0.60
     Davidson diagonalization with overlap
     ethr =  5.60E-05,  avg # of iterations =  3.5

     total cpu time spent up to now is       19.3 secs

     total energy              =     -15.85282893 Ry
     estimated scf accuracy    <       0.00011682 Ry

     iteration #  4     ecut=    40.00 Ry     beta= 0.60
     Davidson diagonalization with overlap
     ethr =  1.46E-06,  avg # of iterations =  4.9

     total cpu time spent up to now is       24.2 secs

     End of self-consistent calculation

          k =-0.1250 0.1250 0.1250 (  1173 PWs)   bands (ev):

    -5.6809   4.4528   5.7570   5.7570   8.5025   9.0311   9.0311  10.6623
    13.3061  13.3061  14.5501  16.6019  18.3778  18.3778  22.3537  26.8591
    26.8591  27.0282  29.4674  29.4674

     occupation numbers 
     1.0000   1.0000   1.0000   1.0000   0.0000   0.0000   0.0000   0.0000
     0.0000   0.0000   0.0000   0.0000   0.0000   0.0000   0.0000   0.0000
     0.0000   0.0000   0.0000   0.0000

          k =-0.3750 0.3750-0.1250 (  1151 PWs)   bands (ev):

    -4.6325   1.4311   3.7287   5.2716   8.7268   9.7248   9.8640  12.2510
    12.5153  15.7134  16.0416  18.3063  19.8636  21.3681  22.2728  23.7633
    24.7637  27.4487  27.7639  28.5145

     occupation numbers 
     1.0000   1.0000   1.0000   1.0000   0.0000   0.0000   0.0000   0.0000
     0.0000   0.0000   0.0000   0.0000   0.0000   0.0000   0.0000   0.0000
     0.0000   0.0000   0.0000   0.0000

          k = 0.3750-0.3750 0.6250 (  1154 PWs)   bands (ev):

    -3.4536  -0.7052   3.7642   4.4821   8.1969   9.5279  10.1473  13.3431
    14.9128  16.4860  17.4387  17.6411  18.3412  20.8871  23.9666  25.5366
    26.0345  26.8195  27.6741  28.0427

     occupation numbers 
     1.0000   1.0000   1.0000   1.0000   0.0000   0.0000   0.0000   0.0000
     0.0000   0.0000   0.0000   0.0000   0.0000   0.0000   0.0000   0.0000
     0.0000   0.0000   0.0000   0.0000

          k = 0.1250-0.1250 0.3750 (  1155 PWs)   bands (ev):

    -5.1424   2.8295   4.7263   4.8050   8.1588   9.7241  10.5055  10.7572
    13.4424  14.2488  15.8762  17.4699  19.0958  20.3158  23.4917  23.8654
    25.0165  27.2908  27.3532  28.6241

     occupation numbers 
     1.0000   1.0000   1.0000   1.0000   0.0000   0.0000   0.0000   0.0000
     0.0000   0.0000   0.0000   0.0000   0.0000   0.0000   0.0000   0.0000
     0.0000   0.0000   0.0000   0.0000

          k = 0.1250 0.3750 0.3750 (  1151 PWs)   bands (ev):

    -4.6325   1.4311   3.7287   5.2716   8.7268   9.7248   9.8640  12.2510
    12.5153  15.7134  16.0416  18.3063  19.8636  21.3682  22.2728  23.7633
    24.7637  27.4486  27.7639  28.5145

     occupation numbers 
     1.0000   1.0000   1.0000   1.0000   0.0000   0.0000   0.0000   0.0000
     0.0000   0.0000   0.0000   0.0000   0.0000   0.0000   0.0000   0.0000
     0.0000   0.0000   0.0000   0.0000

          k =-0.1250 0.6250 0.1250 (  1155 PWs)   bands (ev):

    -4.0914   1.1351   3.3625   3.8358   7.3539   8.8972  11.9836  12.2856
    16.0307  16.0480  17.5404  19.1546  19.6267  20.6662  21.8609  22.9789
    24.2987  25.4815  27.4921  29.7620

     occupation numbers 
     1.0000   1.0000   1.0000   1.0000   0.0000   0.0000   0.0000   0.0000
     0.0000   0.0000   0.0000   0.0000   0.0000   0.0000   0.0000   0.0000
     0.0000   0.0000   0.0000   0.0000

          k = 0.6250-0.1250 0.8750 (  1155 PWs)   bands (ev):

    -2.4065  -0.8548   1.9620   3.0719   8.3964  10.2733  11.2752  13.4247
    14.3852  17.0265  18.1554  20.2074  21.2491  21.8259  23.3389  24.1493
    24.5061  25.1035  26.8328  27.4783

     occupation numbers 
     1.0000   1.0000   1.0000   1.0000   0.0000   0.0000   0.0000   0.0000
     0.0000   0.0000   0.0000   0.0000   0.0000   0.0000   0.0000   0.0000
     0.0000   0.0000   0.0000   0.0000

          k = 0.3750 0.1250 0.6250 (  1150 PWs)   bands (ev):

    -3.6607   0.2202   2.7121   4.1126   8.8898   9.5697  11.0143  11.9387
    15.0042  15.6726  17.9059  18.8189  20.1213  20.9760  23.1437  24.0296
    24.7296  26.8170  27.5280  28.5882

     occupation numbers 
     1.0000   1.0000   1.0000   1.0000   0.0000   0.0000   0.0000   0.0000
     0.0000   0.0000   0.0000   0.0000   0.0000   0.0000   0.0000   0.0000
     0.0000   0.0000   0.0000   0.0000

          k =-0.6250-0.3750-0.3750 (  1154 PWs)   bands (ev):

    -3.4536  -0.7052   3.7642   4.4821   8.1969   9.5279  10.1473  13.3431
    14.9128  16.4860  17.4387  17.6411  18.3412  20.8870  23.9666  25.5366
    26.0345  26.8195  27.6741  28.0427

     occupation numbers 
     1.0000   1.0000   1.0000   1.0000   0.0000   0.0000   0.0000   0.0000
     0.0000   0.0000   0.0000   0.0000   0.0000   0.0000   0.0000   0.0000
     0.0000   0.0000   0.0000   0.0000

          k =-0.8750-0.1250-0.6250 (  1155 PWs)   bands (ev):

    -2.4065  -0.8549   1.9620   3.0719   8.3964  10.2733  11.2752  13.4247
    14.3852  17.0264  18.1554  20.2074  21.2491  21.8258  23.3388  24.1493
    24.5061  25.1035  26.8328  27.4781

     occupation numbers 
     1.0000   1.0000   1.0000   1.0000   0.0000   0.0000   0.0000   0.0000
     0.0000   0.0000   0.0000   0.0000   0.0000   0.0000   0.0000   0.0000
     0.0000   0.0000   0.0000   0.0000

          k =-0.1250-0.8750 0.1250 (  1150 PWs)   bands (ev):

    -2.5881  -0.7512   2.5949   3.3592   6.8872   7.9725  14.2709  14.3097
    16.6733  16.7899  18.3235  18.6679  20.7681  20.9148  21.8042  24.4224
    24.6377  25.2197  26.5554  28.1630

     occupation numbers 
     1.0000   1.0000   1.0000   1.0000   0.0000   0.0000   0.0000   0.0000
     0.0000   0.0000   0.0000   0.0000   0.0000   0.0000   0.0000   0.0000
     0.0000   0.0000   0.0000   0.0000

          k =-0.3750-0.6250-0.1250 (  1150 PWs)   bands (ev):

    -3.6607   0.2202   2.7121   4.1126   8.8898   9.5697  11.0143  11.9387
    15.0042  15.6726  17.9059  18.8189  20.1213  20.9760  23.1437  24.0296
    24.7296  26.8170  27.5280  28.5882

     occupation numbers 
     1.0000   1.0000   1.0000   1.0000   0.0000   0.0000   0.0000   0.0000
     0.0000   0.0000   0.0000   0.0000   0.0000   0.0000   0.0000   0.0000
     0.0000   0.0000   0.0000   0.0000

          k =-0.3750-0.1250-0.1250 (  1155 PWs)   bands (ev):

    -5.1424   2.8295   4.7263   4.8050   8.1588   9.7241  10.5055  10.7572
    13.4424  14.2488  15.8762  17.4699  19.0958  20.3158  23.4917  23.8654
    25.0165  27.2908  27.3532  28.6241

     occupation numbers 
     1.0000   1.0000   1.0000   1.0000   0.0000   0.0000   0.0000   0.0000
     0.0000   0.0000   0.0000   0.0000   0.0000   0.0000   0.0000   0.0000
     0.0000   0.0000   0.0000   0.0000

          k =-0.6250 0.1250-0.3750 (  1150 PWs)   bands (ev):

    -3.6607   0.2202   2.7121   4.1126   8.8898   9.5697  11.0143  11.9387
    15.0042  15.6726  17.9059  18.8190  20.1213  20.9760  23.1437  24.0296
    24.7296  26.8170  27.5280  28.5883

     occupation numbers 
     1.0000   1.0000   1.0000   1.0000   0.0000   0.0000   0.0000   0.0000
     0.0000   0.0000   0.0000   0.0000   0.0000   0.0000   0.0000   0.0000
     0.0000   0.0000   0.0000   0.0000

          k = 0.1250-0.6250 0.3750 (  1150 PWs)   bands (ev):

    -3.6607   0.2202   2.7121   4.1126   8.8898   9.5697  11.0143  11.9387
    15.0042  15.6726  17.9059  18.8189  20.1213  20.9760  23.1437  24.0296
    24.7296  26.8170  27.5280  28.5882

     occupation numbers 
     1.0000   1.0000   1.0000   1.0000   0.0000   0.0000   0.0000   0.0000
     0.0000   0.0000   0.0000   0.0000   0.0000   0.0000   0.0000   0.0000
     0.0000   0.0000   0.0000   0.0000

          k =-0.1250-0.3750 0.1250 (  1155 PWs)   bands (ev):

    -5.1424   2.8295   4.7263   4.8050   8.1588   9.7241  10.5055  10.7572
    13.4424  14.2488  15.8762  17.4699  19.0958  20.3158  23.4917  23.8654
    25.0165  27.2908  27.3532  28.6241

     occupation numbers 
     1.0000   1.0000   1.0000   1.0000   0.0000   0.0000   0.0000   0.0000
     0.0000   0.0000   0.0000   0.0000   0.0000   0.0000   0.0000   0.0000
     0.0000   0.0000   0.0000   0.0000

          k =-0.3750-0.1250 0.3750 (  1151 PWs)   bands (ev):

    -4.6325   1.4311   3.7287   5.2716   8.7268   9.7248   9.8640  12.2510
    12.5153  15.7134  16.0416  18.3063  19.8636  21.3681  22.2728  23.7633
    24.7637  27.4486  27.7640  28.5145

     occupation numbers 
     1.0000   1.0000   1.0000   1.0000   0.0000   0.0000   0.0000   0.0000
     0.0000   0.0000   0.0000   0.0000   0.0000   0.0000   0.0000   0.0000
     0.0000   0.0000   0.0000   0.0000

          k =-0.6250 0.1250 0.1250 (  1155 PWs)   bands (ev):

    -4.0914   1.1351   3.3625   3.8358   7.3539   8.8972  11.9836  12.2856
    16.0307  16.0481  17.5404  19.1546  19.6267  20.6662  21.8609  22.9789
    24.2987  25.4815  27.4922  29.7620

     occupation numbers 
     1.0000   1.0000   1.0000   1.0000   0.0000   0.0000   0.0000   0.0000
     0.0000   0.0000   0.0000   0.0000   0.0000   0.0000   0.0000   0.0000
     0.0000   0.0000   0.0000   0.0000

          k = 0.1250-0.6250 0.8750 (  1155 PWs)   bands (ev):

    -2.4065  -0.8548   1.9620   3.0719   8.3964  10.2733  11.2752  13.4247
    14.3852  17.0264  18.1554  20.2074  21.2491  21.8259  23.3389  24.1493
    24.5061  25.1035  26.8328  27.4782

     occupation numbers 
     1.0000   1.0000   1.0000   1.0000   0.0000   0.0000   0.0000   0.0000
     0.0000   0.0000   0.0000   0.0000   0.0000   0.0000   0.0000   0.0000
     0.0000   0.0000   0.0000   0.0000

          k =-0.1250-0.3750 0.6250 (  1150 PWs)   bands (ev):

    -3.6607   0.2202   2.7121   4.1126   8.8898   9.5697  11.0143  11.9387
    15.0042  15.6726  17.9059  18.8189  20.1213  20.9760  23.1437  24.0296
    24.7296  26.8170  27.5280  28.5883

     occupation numbers 
     1.0000   1.0000   1.0000   1.0000   0.0000   0.0000   0.0000   0.0000
     0.0000   0.0000   0.0000   0.0000   0.0000   0.0000   0.0000   0.0000
     0.0000   0.0000   0.0000   0.0000

          k =-0.1250 0.1250 0.6250 (  1155 PWs)   bands (ev):

    -4.0914   1.1351   3.3625   3.8358   7.3539   8.8972  11.9836  12.2856
    16.0307  16.0480  17.5404  19.1546  19.6267  20.6662  21.8609  22.9789
    24.2987  25.4815  27.4921  29.7621

     occupation numbers 
     1.0000   1.0000   1.0000   1.0000   0.0000   0.0000   0.0000   0.0000
     0.0000   0.0000   0.0000   0.0000   0.0000   0.0000   0.0000   0.0000
     0.0000   0.0000   0.0000   0.0000

          k =-0.3750 0.3750 0.3750 (  1155 PWs)   bands (ev):

    -4.1875   0.1057   4.9610   4.9610   7.6563   9.4901   9.4901  13.7665
    14.6162  14.6162  15.5128  19.7135  19.7135  19.8858  22.3222  24.4649
    24.4649  28.6945  29.3872  29.4563

     occupation numbers 
     1.0000   1.0000   1.0000   1.0000   0.0000   0.0000   0.0000   0.0000
     0.0000   0.0000   0.0000   0.0000   0.0000   0.0000   0.0000   0.0000
     0.0000   0.0000   0.0000   0.0000

          k = 0.3750-0.3750 1.1250 (  1150 PWs)   bands (ev):

    -2.9543  -0.5708   2.0320   4.1586   7.8447  11.4313  11.5111  12.9429
    13.9570  14.0118  18.4670  20.7729  20.9467  21.8721  22.2360  24.2362
    25.1408  25.6339  27.4574  27.9605

     occupation numbers 
     1.0000   1.0000   1.0000   1.0000   0.0000   0.0000   0.0000   0.0000
     0.0000   0.0000   0.0000   0.0000   0.0000   0.0000   0.0000   0.0000
     0.0000   0.0000   0.0000   0.0000

          k = 0.1250-0.1250 0.8750 (  1150 PWs)   bands (ev):

    -2.5881  -0.7512   2.5949   3.3592   6.8872   7.9725  14.2709  14.3097
    16.6733  16.7900  18.3235  18.6679  20.7681  20.9148  21.8042  24.4224
    24.6377  25.2196  26.5554  28.1628

     occupation numbers 
     1.0000   1.0000   1.0000   1.0000   0.0000   0.0000   0.0000   0.0000
     0.0000   0.0000   0.0000   0.0000   0.0000   0.0000   0.0000   0.0000
     0.0000   0.0000   0.0000   0.0000

          k =-0.8750-0.6250-0.1250 (  1155 PWs)   bands (ev):

    -2.4065  -0.8549   1.9620   3.0719   8.3964  10.2733  11.2752  13.4247
    14.3852  17.0264  18.1554  20.2074  21.2491  21.8258  23.3388  24.1492
    24.5061  25.1035  26.8328  27.4781

     occupation numbers 
     1.0000   1.0000   1.0000   1.0000   0.0000   0.0000   0.0000   0.0000
     0.0000   0.0000   0.0000   0.0000   0.0000   0.0000   0.0000   0.0000
     0.0000   0.0000   0.0000   0.0000

          k =-1.1250-0.3750-0.3750 (  1150 PWs)   bands (ev):

    -2.9543  -0.5708   2.0320   4.1586   7.8447  11.4313  11.5111  12.9429
    13.9570  14.0118  18.4670  20.7729  20.9467  21.8721  22.2359  24.2362
    25.1408  25.6339  27.4574  27.9605

     occupation numbers 
     1.0000   1.0000   1.0000   1.0000   0.0000   0.0000   0.0000   0.0000
     0.0000   0.0000   0.0000   0.0000   0.0000   0.0000   0.0000   0.0000
     0.0000   0.0000   0.0000   0.0000

          k =-0.3750-1.1250 0.3750 (  1150 PWs)   bands (ev):

    -2.9543  -0.5708   2.0320   4.1586   7.8447  11.4313  11.5111  12.9429
    13.9570  14.0118  18.4670  20.7729  20.9467  21.8721  22.2360  24.2362
    25.1408  25.6339  27.4574  27.9605

     occupation numbers 
     1.0000   1.0000   1.0000   1.0000   0.0000   0.0000   0.0000   0.0000
     0.0000   0.0000   0.0000   0.0000   0.0000   0.0000   0.0000   0.0000
     0.0000   0.0000   0.0000   0.0000

          k =-0.6250-0.8750 0.1250 (  1155 PWs)   bands (ev):

    -2.4065  -0.8548   1.9620   3.0719   8.3964  10.2733  11.2752  13.4247
    14.3852  17.0265  18.1554  20.2075  21.2491  21.8259  23.3389  24.1493
    24.5061  25.1035  26.8328  27.4781

     occupation numbers 
     1.0000   1.0000   1.0000   1.0000   0.0000   0.0000   0.0000   0.0000
     0.0000   0.0000   0.0000   0.0000   0.0000   0.0000   0.0000   0.0000
     0.0000   0.0000   0.0000   0.0000

          k =-0.6250-0.3750 0.1250 (  1150 PWs)   bands (ev):

    -3.6607   0.2202   2.7121   4.1126   8.8898   9.5697  11.0143  11.9387
    15.0042  15.6726  17.9059  18.8189  20.1213  20.9760  23.1437  24.0296
    24.7296  26.8170  27.5280  28.5882

     occupation numbers 
     1.0000   1.0000   1.0000   1.0000   0.0000   0.0000   0.0000   0.0000
     0.0000   0.0000   0.0000   0.0000   0.0000   0.0000   0.0000   0.0000
     0.0000   0.0000   0.0000   0.0000

          k =-0.8750-0.1250-0.1250 (  1150 PWs)   bands (ev):

    -2.5881  -0.7512   2.5949   3.3592   6.8872   7.9725  14.2709  14.3097
    16.6733  16.7899  18.3235  18.6679  20.7681  20.9148  21.8042  24.4223
    24.6377  25.2196  26.5554  28.1628

     occupation numbers 
     1.0000   1.0000   1.0000   1.0000   0.0000   0.0000   0.0000   0.0000
     0.0000   0.0000   0.0000   0.0000   0.0000   0.0000   0.0000   0.0000
     0.0000   0.0000   0.0000   0.0000

          k =-0.1250-0.8750 0.6250 (  1155 PWs)   bands (ev):

    -2.4065  -0.8548   1.9620   3.0719   8.3964  10.2733  11.2752  13.4247
    14.3852  17.0264  18.1554  20.2074  21.2491  21.8259  23.3388  24.1492
    24.5061  25.1035  26.8328  27.4781

     occupation numbers 
     1.0000   1.0000   1.0000   1.0000   0.0000   0.0000   0.0000   0.0000
     0.0000   0.0000   0.0000   0.0000   0.0000   0.0000   0.0000   0.0000
     0.0000   0.0000   0.0000   0.0000

          k =-0.3750-0.6250 0.3750 (  1154 PWs)   bands (ev):

    -3.4536  -0.7052   3.7642   4.4821   8.1969   9.5279  10.1473  13.3431
    14.9128  16.4860  17.4387  17.6411  18.3412  20.8870  23.9665  25.5366
    26.0345  26.8195  27.6741  28.0427

     occupation numbers 
     1.0000   1.0000   1.0000   1.0000   0.0000   0.0000   0.0000   0.0000
     0.0000   0.0000   0.0000   0.0000   0.0000   0.0000   0.0000   0.0000
     0.0000   0.0000   0.0000   0.0000

          k = 0.3750 0.6250-0.3750 (  1154 PWs)   bands (ev):

    -3.4536  -0.7052   3.7642   4.4821   8.1969   9.5279  10.1473  13.3431
    14.9128  16.4860  17.4387  17.6411  18.3412  20.8871  23.9665  25.5366
    26.0345  26.8195  27.6741  28.0427

     occupation numbers 
     1.0000   1.0000   1.0000   1.0000   0.0000   0.0000   0.0000   0.0000
     0.0000   0.0000   0.0000   0.0000   0.0000   0.0000   0.0000   0.0000
     0.0000   0.0000   0.0000   0.0000

          k = 0.1250 0.8750-0.6250 (  1155 PWs)   bands (ev):

    -2.4065  -0.8548   1.9620   3.0719   8.3964  10.2733  11.2752  13.4247
    14.3852  17.0264  18.1554  20.2074  21.2491  21.8259  23.3389  24.1493
    24.5061  25.1035  26.8329  27.4782

     occupation numbers 
     1.0000   1.0000   1.0000   1.0000   0.0000   0.0000   0.0000   0.0000
     0.0000   0.0000   0.0000   0.0000   0.0000   0.0000   0.0000   0.0000
     0.0000   0.0000   0.0000   0.0000

          k = 0.8750 0.1250 0.1250 (  1150 PWs)   bands (ev):

    -2.5881  -0.7512   2.5949   3.3592   6.8872   7.9725  14.2709  14.3097
    16.6733  16.7899  18.3235  18.6679  20.7681  20.9148  21.8042  24.4223
    24.6377  25.2197  26.5554  28.1628

     occupation numbers 
     1.0000   1.0000   1.0000   1.0000   0.0000   0.0000   0.0000   0.0000
     0.0000   0.0000   0.0000   0.0000   0.0000   0.0000   0.0000   0.0000
     0.0000   0.0000   0.0000   0.0000

          k = 0.6250 0.3750-0.1250 (  1150 PWs)   bands (ev):

    -3.6607   0.2202   2.7121   4.1126   8.8898   9.5697  11.0143  11.9387
    15.0042  15.6726  17.9059  18.8190  20.1213  20.9760  23.1437  24.0297
    24.7296  26.8170  27.5280  28.5882

     occupation numbers 
     1.0000   1.0000   1.0000   1.0000   0.0000   0.0000   0.0000   0.0000
     0.0000   0.0000   0.0000   0.0000   0.0000   0.0000   0.0000   0.0000
     0.0000   0.0000   0.0000   0.0000

          k = 0.6250 0.8750-0.1250 (  1155 PWs)   bands (ev):

    -2.4065  -0.8548   1.9620   3.0719   8.3964  10.2733  11.2752  13.4247
    14.3852  17.0264  18.1554  20.2074  21.2491  21.8259  23.3388  24.1493
    24.5061  25.1035  26.8328  27.4781

     occupation numbers 
     1.0000   1.0000   1.0000   1.0000   0.0000   0.0000   0.0000   0.0000
     0.0000   0.0000   0.0000   0.0000   0.0000   0.0000   0.0000   0.0000
     0.0000   0.0000   0.0000   0.0000

          k = 0.3750 1.1250-0.3750 (  1150 PWs)   bands (ev):

    -2.9543  -0.5708   2.0320   4.1586   7.8447  11.4313  11.5111  12.9429
    13.9570  14.0118  18.4670  20.7729  20.9467  21.8721  22.2359  24.2362
    25.1408  25.6339  27.4574  27.9605

     occupation numbers 
     1.0000   1.0000   1.0000   1.0000   0.0000   0.0000   0.0000   0.0000
     0.0000   0.0000   0.0000   0.0000   0.0000   0.0000   0.0000   0.0000
     0.0000   0.0000   0.0000   0.0000

          k = 1.1250 0.3750 0.3750 (  1150 PWs)   bands (ev):

    -2.9543  -0.5708   2.0320   4.1586   7.8447  11.4313  11.5111  12.9429
    13.9570  14.0119  18.4670  20.7729  20.9467  21.8721  22.2359  24.2362
    25.1408  25.6339  27.4574  27.9605

     occupation numbers 
     1.0000   1.0000   1.0000   1.0000   0.0000   0.0000   0.0000   0.0000
     0.0000   0.0000   0.0000   0.0000   0.0000   0.0000   0.0000   0.0000
     0.0000   0.0000   0.0000   0.0000

          k = 0.8750 0.6250 0.1250 (  1155 PWs)   bands (ev):

    -2.4065  -0.8549   1.9620   3.0719   8.3964  10.2733  11.2752  13.4247
    14.3852  17.0264  18.1554  20.2074  21.2491  21.8258  23.3388  24.1492
    24.5061  25.1035  26.8328  27.4782

     occupation numbers 
     1.0000   1.0000   1.0000   1.0000   0.0000   0.0000   0.0000   0.0000
     0.0000   0.0000   0.0000   0.0000   0.0000   0.0000   0.0000   0.0000
     0.0000   0.0000   0.0000   0.0000

          k =-0.1250 0.1250-0.8750 (  1150 PWs)   bands (ev):

    -2.5881  -0.7512   2.5949   3.3592   6.8872   7.9725  14.2709  14.3097
    16.6733  16.7900  18.3235  18.6679  20.7681  20.9148  21.8042  24.4224
    24.6378  25.2197  26.5555  28.1753

     occupation numbers 
     1.0000   1.0000   1.0000   1.0000   0.0000   0.0000   0.0000   0.0000
     0.0000   0.0000   0.0000   0.0000   0.0000   0.0000   0.0000   0.0000
     0.0000   0.0000   0.0000   0.0000

          k =-0.3750 0.3750-1.1250 (  1150 PWs)   bands (ev):

    -2.9543  -0.5708   2.0320   4.1586   7.8447  11.4313  11.5111  12.9429
    13.9570  14.0118  18.4670  20.7729  20.9467  21.8721  22.2360  24.2362
    25.1408  25.6339  27.4574  27.9605

     occupation numbers 
     1.0000   1.0000   1.0000   1.0000   0.0000   0.0000   0.0000   0.0000
     0.0000   0.0000   0.0000   0.0000   0.0000   0.0000   0.0000   0.0000
     0.0000   0.0000   0.0000   0.0000

          k = 0.3750-0.3750-0.3750 (  1155 PWs)   bands (ev):

    -4.1875   0.1057   4.9610   4.9610   7.6563   9.4901   9.4901  13.7665
    14.6162  14.6162  15.5128  19.7135  19.7135  19.8858  22.3222  24.4649
    24.4649  28.6945  29.3872  29.4563

     occupation numbers 
     1.0000   1.0000   1.0000   1.0000   0.0000   0.0000   0.0000   0.0000
     0.0000   0.0000   0.0000   0.0000   0.0000   0.0000   0.0000   0.0000
     0.0000   0.0000   0.0000   0.0000

          k = 0.1250-0.1250-0.6250 (  1155 PWs)   bands (ev):

    -4.0914   1.1351   3.3625   3.8358   7.3539   8.8972  11.9836  12.2856
    16.0307  16.0480  17.5404  19.1546  19.6267  20.6662  21.8609  22.9789
    24.2988  25.4815  27.4921  29.7620

     occupation numbers 
     1.0000   1.0000   1.0000   1.0000   0.0000   0.0000   0.0000   0.0000
     0.0000   0.0000   0.0000   0.0000   0.0000   0.0000   0.0000   0.0000
     0.0000   0.0000   0.0000   0.0000

          k = 0.1250 0.3750-0.6250 (  1150 PWs)   bands (ev):

    -3.6607   0.2202   2.7121   4.1126   8.8898   9.5697  11.0143  11.9387
    15.0042  15.6726  17.9059  18.8190  20.1213  20.9760  23.1437  24.0296
    24.7296  26.8171  27.5280  28.5883

     occupation numbers 
     1.0000   1.0000   1.0000   1.0000   0.0000   0.0000   0.0000   0.0000
     0.0000   0.0000   0.0000   0.0000   0.0000   0.0000   0.0000   0.0000
     0.0000   0.0000   0.0000   0.0000

          k =-0.1250 0.6250-0.8750 (  1155 PWs)   bands (ev):

    -2.4065  -0.8548   1.9620   3.0719   8.3964  10.2733  11.2752  13.4247
    14.3852  17.0265  18.1554  20.2075  21.2491  21.8259  23.3389  24.1493
    24.5061  25.1035  26.8328  27.4783

     occupation numbers 
     1.0000   1.0000   1.0000   1.0000   0.0000   0.0000   0.0000   0.0000
     0.0000   0.0000   0.0000   0.0000   0.0000   0.0000   0.0000   0.0000
     0.0000   0.0000   0.0000   0.0000

          k = 0.6250-0.1250-0.1250 (  1155 PWs)   bands (ev):

    -4.0914   1.1351   3.3625   3.8358   7.3539   8.8972  11.9836  12.2856
    16.0307  16.0480  17.5404  19.1546  19.6267  20.6662  21.8609  22.9789
    24.2987  25.4815  27.4922  29.7621

     occupation numbers 
     1.0000   1.0000   1.0000   1.0000   0.0000   0.0000   0.0000   0.0000
     0.0000   0.0000   0.0000   0.0000   0.0000   0.0000   0.0000   0.0000
     0.0000   0.0000   0.0000   0.0000

          k = 0.3750 0.1250-0.3750 (  1151 PWs)   bands (ev):

    -4.6325   1.4311   3.7287   5.2716   8.7268   9.7248   9.8640  12.2510
    12.5153  15.7134  16.0416  18.3063  19.8636  21.3682  22.2728  23.7633
    24.7637  27.4486  27.7640  28.5145

     occupation numbers 
     1.0000   1.0000   1.0000   1.0000   0.0000   0.0000   0.0000   0.0000
     0.0000   0.0000   0.0000   0.0000   0.0000   0.0000   0.0000   0.0000
     0.0000   0.0000   0.0000   0.0000

          k = 0.1250 0.3750-0.1250 (  1155 PWs)   bands (ev):

    -5.1424   2.8295   4.7263   4.8050   8.1588   9.7241  10.5055  10.7572
    13.4424  14.2488  15.8762  17.4699  19.0958  20.3158  23.4917  23.8654
    25.0165  27.2908  27.3532  28.6241

     occupation numbers 
     1.0000   1.0000   1.0000   1.0000   0.0000   0.0000   0.0000   0.0000
     0.0000   0.0000   0.0000   0.0000   0.0000   0.0000   0.0000   0.0000
     0.0000   0.0000   0.0000   0.0000

          k =-0.1250 0.6250-0.3750 (  1150 PWs)   bands (ev):

    -3.6607   0.2202   2.7121   4.1126   8.8898   9.5697  11.0143  11.9387
    15.0042  15.6726  17.9059  18.8190  20.1213  20.9760  23.1437  24.0297
    24.7296  26.8171  27.5280  28.5883

     occupation numbers 
     1.0000   1.0000   1.0000   1.0000   0.0000   0.0000   0.0000   0.0000
     0.0000   0.0000   0.0000   0.0000   0.0000   0.0000   0.0000   0.0000
     0.0000   0.0000   0.0000   0.0000

          k = 0.6250-0.1250 0.3750 (  1150 PWs)   bands (ev):

    -3.6607   0.2202   2.7121   4.1126   8.8898   9.5697  11.0143  11.9387
    15.0042  15.6726  17.9059  18.8190  20.1213  20.9760  23.1437  24.0296
    24.7296  26.8170  27.5281  28.5882

     occupation numbers 
     1.0000   1.0000   1.0000   1.0000   0.0000   0.0000   0.0000   0.0000
     0.0000   0.0000   0.0000   0.0000   0.0000   0.0000   0.0000   0.0000
     0.0000   0.0000   0.0000   0.0000

          k = 0.3750 0.1250 0.1250 (  1155 PWs)   bands (ev):

    -5.1424   2.8295   4.7263   4.8050   8.1588   9.7241  10.5055  10.7572
    13.4424  14.2488  15.8762  17.4699  19.0958  20.3158  23.4917  23.8654
    25.0165  27.2908  27.3532  28.6241

     occupation numbers 
     1.0000   1.0000   1.0000   1.0000   0.0000   0.0000   0.0000   0.0000
     0.0000   0.0000   0.0000   0.0000   0.0000   0.0000   0.0000   0.0000
     0.0000   0.0000   0.0000   0.0000

          k = 0.3750 0.6250 0.1250 (  1150 PWs)   bands (ev):

    -3.6607   0.2202   2.7121   4.1126   8.8898   9.5697  11.0143  11.9387
    15.0042  15.6726  17.9059  18.8189  20.1213  20.9760  23.1437  24.0296
    24.7297  26.8171  27.5280  28.5883

     occupation numbers 
     1.0000   1.0000   1.0000   1.0000   0.0000   0.0000   0.0000   0.0000
     0.0000   0.0000   0.0000   0.0000   0.0000   0.0000   0.0000   0.0000
     0.0000   0.0000   0.0000   0.0000

          k = 0.1250 0.8750-0.1250 (  1150 PWs)   bands (ev):

    -2.5881  -0.7512   2.5949   3.3592   6.8872   7.9725  14.2709  14.3097
    16.6733  16.7899  18.3235  18.6679  20.7681  20.9148  21.8042  24.4224
    24.6377  25.2196  26.5554  28.1628

     occupation numbers 
     1.0000   1.0000   1.0000   1.0000   0.0000   0.0000   0.0000   0.0000
     0.0000   0.0000   0.0000   0.0000   0.0000   0.0000   0.0000   0.0000
     0.0000   0.0000   0.0000   0.0000

          k = 0.8750 0.1250 0.6250 (  1155 PWs)   bands (ev):

    -2.4065  -0.8549   1.9620   3.0719   8.3964  10.2733  11.2752  13.4247
    14.3852  17.0264  18.1554  20.2074  21.2491  21.8259  23.3389  24.1493
    24.5062  25.1035  26.8328  27.4781

     occupation numbers 
     1.0000   1.0000   1.0000   1.0000   0.0000   0.0000   0.0000   0.0000
     0.0000   0.0000   0.0000   0.0000   0.0000   0.0000   0.0000   0.0000
     0.0000   0.0000   0.0000   0.0000

          k = 0.6250 0.3750 0.3750 (  1154 PWs)   bands (ev):

    -3.4536  -0.7052   3.7642   4.4821   8.1969   9.5279  10.1473  13.3431
    14.9128  16.4860  17.4387  17.6411  18.3412  20.8870  23.9666  25.5367
    26.0345  26.8195  27.6741  28.0427

     occupation numbers 
     1.0000   1.0000   1.0000   1.0000   0.0000   0.0000   0.0000   0.0000
     0.0000   0.0000   0.0000   0.0000   0.0000   0.0000   0.0000   0.0000
     0.0000   0.0000   0.0000   0.0000

          k =-0.3750-0.1250-0.6250 (  1150 PWs)   bands (ev):

    -3.6607   0.2202   2.7121   4.1126   8.8898   9.5697  11.0143  11.9387
    15.0042  15.6726  17.9059  18.8189  20.1213  20.9760  23.1437  24.0296
    24.7296  26.8170  27.5280  28.5882

     occupation numbers 
     1.0000   1.0000   1.0000   1.0000   0.0000   0.0000   0.0000   0.0000
     0.0000   0.0000   0.0000   0.0000   0.0000   0.0000   0.0000   0.0000
     0.0000   0.0000   0.0000   0.0000

          k =-0.6250 0.1250-0.8750 (  1155 PWs)   bands (ev):

    -2.4065  -0.8548   1.9620   3.0719   8.3964  10.2733  11.2752  13.4247
    14.3852  17.0264  18.1554  20.2074  21.2491  21.8259  23.3389  24.1493
    24.5061  25.1035  26.8328  27.4781

     occupation numbers 
     1.0000   1.0000   1.0000   1.0000   0.0000   0.0000   0.0000   0.0000
     0.0000   0.0000   0.0000   0.0000   0.0000   0.0000   0.0000   0.0000
     0.0000   0.0000   0.0000   0.0000

          k = 0.1250-0.6250-0.1250 (  1155 PWs)   bands (ev):

    -4.0914   1.1351   3.3625   3.8358   7.3539   8.8972  11.9836  12.2856
    16.0307  16.0481  17.5404  19.1546  19.6267  20.6662  21.8609  22.9789
    24.2987  25.4815  27.4921  29.7620

     occupation numbers 
     1.0000   1.0000   1.0000   1.0000   0.0000   0.0000   0.0000   0.0000
     0.0000   0.0000   0.0000   0.0000   0.0000   0.0000   0.0000   0.0000
     0.0000   0.0000   0.0000   0.0000

          k =-0.1250-0.3750-0.3750 (  1151 PWs)   bands (ev):

    -4.6325   1.4311   3.7287   5.2716   8.7268   9.7248   9.8640  12.2510
    12.5153  15.7134  16.0416  18.3063  19.8636  21.3682  22.2729  23.7633
    24.7637  27.4487  27.7639  28.5145

     occupation numbers 
     1.0000   1.0000   1.0000   1.0000   0.0000   0.0000   0.0000   0.0000
     0.0000   0.0000   0.0000   0.0000   0.0000   0.0000   0.0000   0.0000
     0.0000   0.0000   0.0000   0.0000

          k =-0.1250 0.1250-0.3750 (  1155 PWs)   bands (ev):

    -5.1424   2.8295   4.7263   4.8050   8.1588   9.7241  10.5055  10.7572
    13.4424  14.2488  15.8762  17.4699  19.0958  20.3158  23.4917  23.8654
    25.0165  27.2908  27.3532  28.6241

     occupation numbers 
     1.0000   1.0000   1.0000   1.0000   0.0000   0.0000   0.0000   0.0000
     0.0000   0.0000   0.0000   0.0000   0.0000   0.0000   0.0000   0.0000
     0.0000   0.0000   0.0000   0.0000

          k =-0.3750 0.3750-0.6250 (  1154 PWs)   bands (ev):

    -3.4536  -0.7052   3.7642   4.4821   8.1969   9.5279  10.1473  13.3431
    14.9128  16.4860  17.4387  17.6411  18.3412  20.8870  23.9666  25.5366
    26.0345  26.8195  27.6741  28.0427

     occupation numbers 
     1.0000   1.0000   1.0000   1.0000   0.0000   0.0000   0.0000   0.0000
     0.0000   0.0000   0.0000   0.0000   0.0000   0.0000   0.0000   0.0000
     0.0000   0.0000   0.0000   0.0000

          k = 0.3750-0.3750 0.1250 (  1151 PWs)   bands (ev):

    -4.6325   1.4311   3.7287   5.2716   8.7268   9.7248   9.8640  12.2510
    12.5153  15.7134  16.0416  18.3063  19.8636  21.3682  22.2728  23.7633
    24.7637  27.4486  27.7640  28.5145

     occupation numbers 
     1.0000   1.0000   1.0000   1.0000   0.0000   0.0000   0.0000   0.0000
     0.0000   0.0000   0.0000   0.0000   0.0000   0.0000   0.0000   0.0000
     0.0000   0.0000   0.0000   0.0000

          k = 0.1250-0.1250-0.1250 (  1173 PWs)   bands (ev):

    -5.6809   4.4528   5.7570   5.7570   8.5025   9.0311   9.0311  10.6623
    13.3061  13.3062  14.5501  16.6019  18.3778  18.3778  22.3537  26.8591
    26.8591  27.0282  29.4674  29.4674

     occupation numbers 
     1.0000   1.0000   1.0000   1.0000   0.0000   0.0000   0.0000   0.0000
     0.0000   0.0000   0.0000   0.0000   0.0000   0.0000   0.0000   0.0000
     0.0000   0.0000   0.0000   0.0000

     highest occupied, lowest unoccupied level (ev):     5.7570    6.8872

!    total energy              =     -15.85283321 Ry
     estimated scf accuracy    <       0.00000016 Ry

     The total energy is the sum of the following terms:
     one-electron contribution =       4.65225184 Ry
     hartree contribution      =       1.09410612 Ry
     xc contribution           =      -4.79826157 Ry
     ewald contribution        =     -16.80092960 Ry

     convergence has been achieved in   4 iterations

     Writing output data file ../tmp/si.save/

     init_run     :      1.31s CPU      1.32s WALL (       1 calls)
     electrons    :     22.69s CPU     22.84s WALL (       1 calls)

     Called by init_run:
     wfcinit      :      1.27s CPU      1.29s WALL (       1 calls)
     wfcinit:atom :      0.01s CPU      0.01s WALL (      64 calls)
     wfcinit:wfcr :      1.20s CPU      1.21s WALL (      64 calls)
     potinit      :      0.00s CPU      0.00s WALL (       1 calls)
     hinit0       :      0.02s CPU      0.02s WALL (       1 calls)

     Called by electrons:
     c_bands      :     19.97s CPU     20.10s WALL (       5 calls)
     sum_band     :      2.71s CPU      2.72s WALL (       5 calls)
     v_of_rho     :      0.01s CPU      0.01s WALL (       5 calls)
     v_h          :      0.00s CPU      0.00s WALL (       5 calls)
     v_xc         :      0.01s CPU      0.01s WALL (       5 calls)
     mix_rho      :      0.01s CPU      0.01s WALL (       5 calls)

     Called by c_bands:
     init_us_2    :      0.11s CPU      0.11s WALL (     704 calls)
     cegterg      :     19.84s CPU     19.97s WALL (     320 calls)

     Called by sum_band:
     sum_band:wei :      0.00s CPU      0.00s WALL (       5 calls)
     sum_band:loo :      2.70s CPU      2.71s WALL (       5 calls)
     sum_band:buf :      0.02s CPU      0.02s WALL (     320 calls)
     sum_band:ini :      0.05s CPU      0.05s WALL (     320 calls)

     Called by *egterg:
     cdiaghg      :      0.66s CPU      0.67s WALL (    1351 calls)
     cegterg:over :      1.53s CPU      1.54s WALL (    1095 calls)
     cegterg:upda :      0.92s CPU      0.94s WALL (    1095 calls)
     cegterg:last :      1.58s CPU      1.58s WALL (     696 calls)
     h_psi        :     15.53s CPU     15.63s WALL (    1479 calls)
     g_psi        :      0.09s CPU      0.09s WALL (    1095 calls)

     Called by h_psi:
     h_psi:calbec :      0.30s CPU      0.30s WALL (    1479 calls)
     vloc_psi     :     14.85s CPU     14.95s WALL (    1479 calls)
     add_vuspsi   :      0.30s CPU      0.30s WALL (    1479 calls)

     General routines
     calbec       :      0.30s CPU      0.30s WALL (    1479 calls)
     fft          :      0.01s CPU      0.01s WALL (      15 calls)
     ffts         :      0.00s CPU      0.00s WALL (       5 calls)
     fftw         :     16.11s CPU     16.23s WALL (   44006 calls)

     Parallel routines

     PWSCF        :     24.02s CPU     24.24s WALL


   This run was terminated on:  17:12:31   1Oct2023            

=------------------------------------------------------------------------------=
   JOB DONE.
=------------------------------------------------------------------------------=
