
     Program PWSCF v.7.2 starts on 18Oct2023 at 11:31:34 

     This program is part of the open-source Quantum ESPRESSO suite
     for quantum simulation of materials; please cite
         "P. Giannozzi et al., J. Phys.:Condens. Matter 21 395502 (2009);
         "P. Giannozzi et al., J. Phys.:Condens. Matter 29 465901 (2017);
         "P. Giannozzi et al., J. Chem. Phys. 152 154105 (2020);
          URL http://www.quantum-espresso.org", 
     in publications or presentations arising from this work. More details at
     http://www.quantum-espresso.org/quote

     Parallel version (MPI), running on     4 processors

     MPI processes distributed on     1 nodes
     2226 MiB available memory on the printing compute node when the environment starts

     Waiting for input...
     Reading input from standard input

     Current dimensions of program PWSCF are:
     Max number of different atomic species (ntypx) = 10
     Max number of k-points (npk) =  40000
     Max angular momentum in pseudopotentials (lmaxx) =  4

     Atomic positions and unit cell read from directory:
     ./work/gr.save/
     Atomic positions from file used, from input discarded


     R & G space division:  proc/nbgrp/npool/nimage =       4
     Subspace diagonalization in iterative solution of the eigenvalue problem:
     a serial algorithm will be used


     Parallelization info
     --------------------
     sticks:   dense  smooth     PW     G-vecs:    dense   smooth      PW
     Min         201      89     38                28181     8374    2389
     Max         202      91     49                28200     8391    2406
     Sum         805     361    163               112745    33523    9603

     Using Slab Decomposition



     bravais-lattice index     =            4
     lattice parameter (alat)  =       4.6561  a.u.
     unit-cell volume          =     532.1978 (a.u.)^3
     number of atoms/cell      =            2
     number of atomic types    =            1
     number of electrons       =         8.00
     number of Kohn-Sham states=           16
     kinetic-energy cutoff     =      60.0000  Ry
     charge density cutoff     =     540.0000  Ry
     Exchange-correlation= PBE
                           (   1   4   3   4   0   0   0)

     celldm(1)=   4.656142  celldm(2)=   0.000000  celldm(3)=   6.087850
     celldm(4)=   0.000000  celldm(5)=   0.000000  celldm(6)=   0.000000

     crystal axes: (cart. coord. in units of alat)
               a(1) = (   1.000000   0.000000   0.000000 )  
               a(2) = (  -0.500000   0.866025   0.000000 )  
               a(3) = (   0.000000   0.000000   6.087850 )  

     reciprocal axes: (cart. coord. in units 2 pi/alat)
               b(1) = (  1.000000  0.577350 -0.000000 )  
               b(2) = (  0.000000  1.154701  0.000000 )  
               b(3) = (  0.000000 -0.000000  0.164262 )  


     PseudoPot. # 1 for C  read from file:
     ../pseudo/C.pbe-n-rrkjus_psl.0.1.UPF
     MD5 check sum: 755e781ff7af45cab9b490cb71e6d69f
     Pseudo is Ultrasoft + core correction, Zval =  4.0
     Generated using &quot;atomic&quot; code by A. Dal Corso  v.6.3MaX
     Using radial grid of 1073 points,  4 beta functions with: 
                l(1) =   0
                l(2) =   0
                l(3) =   1
                l(4) =   1
     Q(r) pseudized with 0 coefficients 


     atomic species   valence    mass     pseudopotential
        C              4.00    12.01070     C ( 1.00)

     24 Sym. Ops., with inversion, found


                                    s                        frac. trans.

      isym =  1     identity                                     

 cryst.   s( 1) = (     1          0          0      )
                  (     0          1          0      )
                  (     0          0          1      )

 cart.    s( 1) = (  1.0000000  0.0000000  0.0000000 )
                  (  0.0000000  1.0000000  0.0000000 )
                  (  0.0000000  0.0000000  1.0000000 )


      isym =  2     180 deg rotation - cart. axis [0,0,1]        

 cryst.   s( 2) = (    -1          0          0      )
                  (     0         -1          0      )
                  (     0          0          1      )

 cart.    s( 2) = ( -1.0000000  0.0000000  0.0000000 )
                  (  0.0000000 -1.0000000  0.0000000 )
                  (  0.0000000  0.0000000  1.0000000 )


      isym =  3     180 deg rotation - cart. axis [0,1,0]        

 cryst.   s( 3) = (    -1          0          0      )
                  (     1          1          0      )
                  (     0          0         -1      )

 cart.    s( 3) = ( -1.0000000  0.0000000  0.0000000 )
                  (  0.0000000  1.0000000  0.0000000 )
                  (  0.0000000  0.0000000 -1.0000000 )


      isym =  4     180 deg rotation - cart. axis [1,0,0]        

 cryst.   s( 4) = (     1          0          0      )
                  (    -1         -1          0      )
                  (     0          0         -1      )

 cart.    s( 4) = (  1.0000000  0.0000000  0.0000000 )
                  (  0.0000000 -1.0000000  0.0000000 )
                  (  0.0000000  0.0000000 -1.0000000 )


      isym =  5      60 deg rotation - cryst. axis [0,0,1]       

 cryst.   s( 5) = (     1          1          0      )
                  (    -1          0          0      )
                  (     0          0          1      )

 cart.    s( 5) = (  0.5000000 -0.8660254  0.0000000 )
                  (  0.8660254  0.5000000  0.0000000 )
                  (  0.0000000  0.0000000  1.0000000 )


      isym =  6      60 deg rotation - cryst. axis [0,0,-1]      

 cryst.   s( 6) = (     0         -1          0      )
                  (     1          1          0      )
                  (     0          0          1      )

 cart.    s( 6) = (  0.5000000  0.8660254  0.0000000 )
                  ( -0.8660254  0.5000000  0.0000000 )
                  (  0.0000000  0.0000000  1.0000000 )


      isym =  7     120 deg rotation - cryst. axis [0,0,1]       

 cryst.   s( 7) = (     0          1          0      )
                  (    -1         -1          0      )
                  (     0          0          1      )

 cart.    s( 7) = ( -0.5000000 -0.8660254  0.0000000 )
                  (  0.8660254 -0.5000000  0.0000000 )
                  (  0.0000000  0.0000000  1.0000000 )


      isym =  8     120 deg rotation - cryst. axis [0,0,-1]      

 cryst.   s( 8) = (    -1         -1          0      )
                  (     1          0          0      )
                  (     0          0          1      )

 cart.    s( 8) = ( -0.5000000  0.8660254  0.0000000 )
                  ( -0.8660254 -0.5000000  0.0000000 )
                  (  0.0000000  0.0000000  1.0000000 )


      isym =  9     180 deg rotation - cryst. axis [1,-1,0]      

 cryst.   s( 9) = (     0         -1          0      )
                  (    -1          0          0      )
                  (     0          0         -1      )

 cart.    s( 9) = (  0.5000000 -0.8660254  0.0000000 )
                  ( -0.8660254 -0.5000000  0.0000000 )
                  (  0.0000000  0.0000000 -1.0000000 )


      isym = 10     180 deg rotation - cryst. axis [2,1,0]       

 cryst.   s(10) = (     1          1          0      )
                  (     0         -1          0      )
                  (     0          0         -1      )

 cart.    s(10) = (  0.5000000  0.8660254  0.0000000 )
                  (  0.8660254 -0.5000000  0.0000000 )
                  (  0.0000000  0.0000000 -1.0000000 )


      isym = 11     180 deg rotation - cryst. axis [0,1,0]       

 cryst.   s(11) = (    -1         -1          0      )
                  (     0          1          0      )
                  (     0          0         -1      )

 cart.    s(11) = ( -0.5000000 -0.8660254  0.0000000 )
                  ( -0.8660254  0.5000000  0.0000000 )
                  (  0.0000000  0.0000000 -1.0000000 )


      isym = 12     180 deg rotation - cryst. axis [1,1,0]       

 cryst.   s(12) = (     0          1          0      )
                  (     1          0          0      )
                  (     0          0         -1      )

 cart.    s(12) = ( -0.5000000  0.8660254  0.0000000 )
                  (  0.8660254  0.5000000  0.0000000 )
                  (  0.0000000  0.0000000 -1.0000000 )


      isym = 13     inversion                                    

 cryst.   s(13) = (    -1          0          0      )
                  (     0         -1          0      )
                  (     0          0         -1      )

 cart.    s(13) = ( -1.0000000  0.0000000  0.0000000 )
                  (  0.0000000 -1.0000000  0.0000000 )
                  (  0.0000000  0.0000000 -1.0000000 )


      isym = 14     inv. 180 deg rotation - cart. axis [0,0,1]   

 cryst.   s(14) = (     1          0          0      )
                  (     0          1          0      )
                  (     0          0         -1      )

 cart.    s(14) = (  1.0000000  0.0000000  0.0000000 )
                  (  0.0000000  1.0000000  0.0000000 )
                  (  0.0000000  0.0000000 -1.0000000 )


      isym = 15     inv. 180 deg rotation - cart. axis [0,1,0]   

 cryst.   s(15) = (     1          0          0      )
                  (    -1         -1          0      )
                  (     0          0          1      )

 cart.    s(15) = (  1.0000000  0.0000000  0.0000000 )
                  (  0.0000000 -1.0000000  0.0000000 )
                  (  0.0000000  0.0000000  1.0000000 )


      isym = 16     inv. 180 deg rotation - cart. axis [1,0,0]   

 cryst.   s(16) = (    -1          0          0      )
                  (     1          1          0      )
                  (     0          0          1      )

 cart.    s(16) = ( -1.0000000  0.0000000  0.0000000 )
                  (  0.0000000  1.0000000  0.0000000 )
                  (  0.0000000  0.0000000  1.0000000 )


      isym = 17     inv.  60 deg rotation - cryst. axis [0,0,1]  

 cryst.   s(17) = (    -1         -1          0      )
                  (     1          0          0      )
                  (     0          0         -1      )

 cart.    s(17) = ( -0.5000000  0.8660254  0.0000000 )
                  ( -0.8660254 -0.5000000  0.0000000 )
                  (  0.0000000  0.0000000 -1.0000000 )


      isym = 18     inv.  60 deg rotation - cryst. axis [0,0,-1] 

 cryst.   s(18) = (     0          1          0      )
                  (    -1         -1          0      )
                  (     0          0         -1      )

 cart.    s(18) = ( -0.5000000 -0.8660254  0.0000000 )
                  (  0.8660254 -0.5000000  0.0000000 )
                  (  0.0000000  0.0000000 -1.0000000 )


      isym = 19     inv. 120 deg rotation - cryst. axis [0,0,1]  

 cryst.   s(19) = (     0         -1          0      )
                  (     1          1          0      )
                  (     0          0         -1      )

 cart.    s(19) = (  0.5000000  0.8660254  0.0000000 )
                  ( -0.8660254  0.5000000  0.0000000 )
                  (  0.0000000  0.0000000 -1.0000000 )


      isym = 20     inv. 120 deg rotation - cryst. axis [0,0,-1] 

 cryst.   s(20) = (     1          1          0      )
                  (    -1          0          0      )
                  (     0          0         -1      )

 cart.    s(20) = (  0.5000000 -0.8660254  0.0000000 )
                  (  0.8660254  0.5000000  0.0000000 )
                  (  0.0000000  0.0000000 -1.0000000 )


      isym = 21     inv. 180 deg rotation - cryst. axis [1,-1,0] 

 cryst.   s(21) = (     0          1          0      )
                  (     1          0          0      )
                  (     0          0          1      )

 cart.    s(21) = ( -0.5000000  0.8660254  0.0000000 )
                  (  0.8660254  0.5000000  0.0000000 )
                  (  0.0000000  0.0000000  1.0000000 )


      isym = 22     inv. 180 deg rotation - cryst. axis [2,1,0]  

 cryst.   s(22) = (    -1         -1          0      )
                  (     0          1          0      )
                  (     0          0          1      )

 cart.    s(22) = ( -0.5000000 -0.8660254  0.0000000 )
                  ( -0.8660254  0.5000000  0.0000000 )
                  (  0.0000000  0.0000000  1.0000000 )


      isym = 23     inv. 180 deg rotation - cryst. axis [0,1,0]  

 cryst.   s(23) = (     1          1          0      )
                  (     0         -1          0      )
                  (     0          0          1      )

 cart.    s(23) = (  0.5000000  0.8660254  0.0000000 )
                  (  0.8660254 -0.5000000  0.0000000 )
                  (  0.0000000  0.0000000  1.0000000 )


      isym = 24     inv. 180 deg rotation - cryst. axis [1,1,0]  

 cryst.   s(24) = (     0         -1          0      )
                  (    -1          0          0      )
                  (     0          0          1      )

 cart.    s(24) = (  0.5000000 -0.8660254  0.0000000 )
                  ( -0.8660254 -0.5000000  0.0000000 )
                  (  0.0000000  0.0000000  1.0000000 )


     point group D_6h(6/mmm)
     there are 12 classes
     the character table:

       E     2C6   2C3   C2    3C2'  3C2'' i     2S3   2S6   s_h   3s_d  3s_v 
A_1g   1.00  1.00  1.00  1.00  1.00  1.00  1.00  1.00  1.00  1.00  1.00  1.00
A_2g   1.00  1.00  1.00  1.00 -1.00 -1.00  1.00  1.00  1.00  1.00 -1.00 -1.00
B_1g   1.00 -1.00  1.00 -1.00  1.00 -1.00  1.00 -1.00  1.00 -1.00  1.00 -1.00
B_2g   1.00 -1.00  1.00 -1.00 -1.00  1.00  1.00 -1.00  1.00 -1.00 -1.00  1.00
E_1g   2.00  1.00 -1.00 -2.00  0.00  0.00  2.00  1.00 -1.00 -2.00  0.00  0.00
E_2g   2.00 -1.00 -1.00  2.00  0.00  0.00  2.00 -1.00 -1.00  2.00  0.00  0.00
A_1u   1.00  1.00  1.00  1.00  1.00  1.00 -1.00 -1.00 -1.00 -1.00 -1.00 -1.00
A_2u   1.00  1.00  1.00  1.00 -1.00 -1.00 -1.00 -1.00 -1.00 -1.00  1.00  1.00
B_1u   1.00 -1.00  1.00 -1.00  1.00 -1.00 -1.00  1.00 -1.00  1.00 -1.00  1.00
B_2u   1.00 -1.00  1.00 -1.00 -1.00  1.00 -1.00  1.00 -1.00  1.00  1.00 -1.00
E_1u   2.00  1.00 -1.00 -2.00  0.00  0.00 -2.00 -1.00  1.00  2.00  0.00  0.00
E_2u   2.00 -1.00 -1.00  2.00  0.00  0.00 -2.00  1.00  1.00 -2.00  0.00  0.00

     the symmetry operations in each class and the name of the first element:

     E        1
          identity                                               
     2C6      5    6
           60 deg rotation - cryst. axis [0,0,1]                 
     2C3      7    8
          120 deg rotation - cryst. axis [0,0,1]                 
     C2       2
          180 deg rotation - cart. axis [0,0,1]                  
     3C2'     4   12   11
          180 deg rotation - cart. axis [1,0,0]                  
     3C2''    3    9   10
          180 deg rotation - cart. axis [0,1,0]                  
     i       13
          inversion                                              
     2S3     17   18
          inv.  60 deg rotation - cryst. axis [0,0,1]            
     2S6     19   20
          inv. 120 deg rotation - cryst. axis [0,0,1]            
     s_h     14
          inv. 180 deg rotation - cart. axis [0,0,1]             
     3s_d    16   24   23
          inv. 180 deg rotation - cart. axis [1,0,0]             
     3s_v    15   21   22
          inv. 180 deg rotation - cart. axis [0,1,0]             

   Cartesian axes

     site n.     atom                  positions (alat units)
         1           C   tau(   1) = (  -0.0000005   0.5773506   3.0439251  )
         2           C   tau(   2) = (   0.5000005   0.2886748   3.0439251  )

   Crystallographic axes

     site n.     atom                  positions (cryst. coord.)
         1           C   tau(   1) = (  0.3333330  0.6666670  0.5000000  )
         2           C   tau(   2) = (  0.6666670  0.3333330  0.5000000  )

     number of k points=   144  Marzari-Vanderbilt smearing, width (Ry)=  0.0200
                       cart. coord. in units 2pi/alat
        k(    1) = (   0.0000000   0.0000000   0.0000000), wk =   0.0138889
        k(    2) = (   0.0000000   0.0962250   0.0000000), wk =   0.0138889
        k(    3) = (   0.0000000   0.1924501   0.0000000), wk =   0.0138889
        k(    4) = (   0.0000000   0.2886751   0.0000000), wk =   0.0138889
        k(    5) = (   0.0000000   0.3849002   0.0000000), wk =   0.0138889
        k(    6) = (   0.0000000   0.4811252   0.0000000), wk =   0.0138889
        k(    7) = (   0.0000000   0.5773503   0.0000000), wk =   0.0138889
        k(    8) = (   0.0000000   0.6735753   0.0000000), wk =   0.0138889
        k(    9) = (   0.0000000   0.7698004   0.0000000), wk =   0.0138889
        k(   10) = (   0.0000000   0.8660254   0.0000000), wk =   0.0138889
        k(   11) = (   0.0000000   0.9622504   0.0000000), wk =   0.0138889
        k(   12) = (   0.0000000   1.0584755   0.0000000), wk =   0.0138889
        k(   13) = (   0.0833333   0.0481125   0.0000000), wk =   0.0138889
        k(   14) = (   0.0833333   0.1443376   0.0000000), wk =   0.0138889
        k(   15) = (   0.0833333   0.2405626   0.0000000), wk =   0.0138889
        k(   16) = (   0.0833333   0.3367877   0.0000000), wk =   0.0138889
        k(   17) = (   0.0833333   0.4330127   0.0000000), wk =   0.0138889
        k(   18) = (   0.0833333   0.5292377   0.0000000), wk =   0.0138889
        k(   19) = (   0.0833333   0.6254628   0.0000000), wk =   0.0138889
        k(   20) = (   0.0833333   0.7216878   0.0000000), wk =   0.0138889
        k(   21) = (   0.0833333   0.8179129   0.0000000), wk =   0.0138889
        k(   22) = (   0.0833333   0.9141379   0.0000000), wk =   0.0138889
        k(   23) = (   0.0833333   1.0103630   0.0000000), wk =   0.0138889
        k(   24) = (   0.0833333   1.1065880   0.0000000), wk =   0.0138889
        k(   25) = (   0.1666667   0.0962250   0.0000000), wk =   0.0138889
        k(   26) = (   0.1666667   0.1924501   0.0000000), wk =   0.0138889
        k(   27) = (   0.1666667   0.2886751   0.0000000), wk =   0.0138889
        k(   28) = (   0.1666667   0.3849002   0.0000000), wk =   0.0138889
        k(   29) = (   0.1666667   0.4811252   0.0000000), wk =   0.0138889
        k(   30) = (   0.1666667   0.5773503   0.0000000), wk =   0.0138889
        k(   31) = (   0.1666667   0.6735753   0.0000000), wk =   0.0138889
        k(   32) = (   0.1666667   0.7698004   0.0000000), wk =   0.0138889
        k(   33) = (   0.1666667   0.8660254   0.0000000), wk =   0.0138889
        k(   34) = (   0.1666667   0.9622505   0.0000000), wk =   0.0138889
        k(   35) = (   0.1666667   1.0584755   0.0000000), wk =   0.0138889
        k(   36) = (   0.1666667   1.1547005   0.0000000), wk =   0.0138889
        k(   37) = (   0.2500000   0.1443376   0.0000000), wk =   0.0138889
        k(   38) = (   0.2500000   0.2405626   0.0000000), wk =   0.0138889
        k(   39) = (   0.2500000   0.3367877   0.0000000), wk =   0.0138889
        k(   40) = (   0.2500000   0.4330127   0.0000000), wk =   0.0138889
        k(   41) = (   0.2500000   0.5292377   0.0000000), wk =   0.0138889
        k(   42) = (   0.2500000   0.6254628   0.0000000), wk =   0.0138889
        k(   43) = (   0.2500000   0.7216878   0.0000000), wk =   0.0138889
        k(   44) = (   0.2500000   0.8179129   0.0000000), wk =   0.0138889
        k(   45) = (   0.2500000   0.9141379   0.0000000), wk =   0.0138889
        k(   46) = (   0.2500000   1.0103630   0.0000000), wk =   0.0138889
        k(   47) = (   0.2500000   1.1065880   0.0000000), wk =   0.0138889
        k(   48) = (   0.2500000   1.2028131   0.0000000), wk =   0.0138889
        k(   49) = (   0.3333333   0.1924501   0.0000000), wk =   0.0138889
        k(   50) = (   0.3333333   0.2886751   0.0000000), wk =   0.0138889
        k(   51) = (   0.3333333   0.3849002   0.0000000), wk =   0.0138889
        k(   52) = (   0.3333333   0.4811252   0.0000000), wk =   0.0138889
        k(   53) = (   0.3333333   0.5773503   0.0000000), wk =   0.0138889
        k(   54) = (   0.3333333   0.6735753   0.0000000), wk =   0.0138889
        k(   55) = (   0.3333333   0.7698004   0.0000000), wk =   0.0138889
        k(   56) = (   0.3333333   0.8660254   0.0000000), wk =   0.0138889
        k(   57) = (   0.3333333   0.9622505   0.0000000), wk =   0.0138889
        k(   58) = (   0.3333333   1.0584755   0.0000000), wk =   0.0138889
        k(   59) = (   0.3333333   1.1547005   0.0000000), wk =   0.0138889
        k(   60) = (   0.3333333   1.2509256   0.0000000), wk =   0.0138889
        k(   61) = (   0.4166667   0.2405626   0.0000000), wk =   0.0138889
        k(   62) = (   0.4166667   0.3367877   0.0000000), wk =   0.0138889
        k(   63) = (   0.4166667   0.4330127   0.0000000), wk =   0.0138889
        k(   64) = (   0.4166667   0.5292377   0.0000000), wk =   0.0138889
        k(   65) = (   0.4166667   0.6254628   0.0000000), wk =   0.0138889
        k(   66) = (   0.4166667   0.7216878   0.0000000), wk =   0.0138889
        k(   67) = (   0.4166667   0.8179129   0.0000000), wk =   0.0138889
        k(   68) = (   0.4166667   0.9141379   0.0000000), wk =   0.0138889
        k(   69) = (   0.4166667   1.0103630   0.0000000), wk =   0.0138889
        k(   70) = (   0.4166667   1.1065880   0.0000000), wk =   0.0138889
        k(   71) = (   0.4166667   1.2028131   0.0000000), wk =   0.0138889
        k(   72) = (   0.4166667   1.2990381   0.0000000), wk =   0.0138889
        k(   73) = (   0.5000000   0.2886751   0.0000000), wk =   0.0138889
        k(   74) = (   0.5000000   0.3849002   0.0000000), wk =   0.0138889
        k(   75) = (   0.5000000   0.4811252   0.0000000), wk =   0.0138889
        k(   76) = (   0.5000000   0.5773503   0.0000000), wk =   0.0138889
        k(   77) = (   0.5000000   0.6735753   0.0000000), wk =   0.0138889
        k(   78) = (   0.5000000   0.7698004   0.0000000), wk =   0.0138889
        k(   79) = (   0.5000000   0.8660254   0.0000000), wk =   0.0138889
        k(   80) = (   0.5000000   0.9622504   0.0000000), wk =   0.0138889
        k(   81) = (   0.5000000   1.0584755   0.0000000), wk =   0.0138889
        k(   82) = (   0.5000000   1.1547005   0.0000000), wk =   0.0138889
        k(   83) = (   0.5000000   1.2509256   0.0000000), wk =   0.0138889
        k(   84) = (   0.5000000   1.3471506   0.0000000), wk =   0.0138889
        k(   85) = (   0.5833333   0.3367877   0.0000000), wk =   0.0138889
        k(   86) = (   0.5833333   0.4330127   0.0000000), wk =   0.0138889
        k(   87) = (   0.5833333   0.5292377   0.0000000), wk =   0.0138889
        k(   88) = (   0.5833333   0.6254628   0.0000000), wk =   0.0138889
        k(   89) = (   0.5833333   0.7216878   0.0000000), wk =   0.0138889
        k(   90) = (   0.5833333   0.8179129   0.0000000), wk =   0.0138889
        k(   91) = (   0.5833333   0.9141379   0.0000000), wk =   0.0138889
        k(   92) = (   0.5833333   1.0103630   0.0000000), wk =   0.0138889
        k(   93) = (   0.5833333   1.1065880   0.0000000), wk =   0.0138889
        k(   94) = (   0.5833333   1.2028131   0.0000000), wk =   0.0138889
        k(   95) = (   0.5833333   1.2990381   0.0000000), wk =   0.0138889
        k(   96) = (   0.5833333   1.3952632   0.0000000), wk =   0.0138889
        k(   97) = (   0.6666667   0.3849002   0.0000000), wk =   0.0138889
        k(   98) = (   0.6666667   0.4811252   0.0000000), wk =   0.0138889
        k(   99) = (   0.6666667   0.5773503   0.0000000), wk =   0.0138889
        k(  100) = (   0.6666667   0.6735753   0.0000000), wk =   0.0138889
        k(  101) = (   0.6666667   0.7698004   0.0000000), wk =   0.0138889
        k(  102) = (   0.6666667   0.8660254   0.0000000), wk =   0.0138889
        k(  103) = (   0.6666667   0.9622505   0.0000000), wk =   0.0138889
        k(  104) = (   0.6666667   1.0584755   0.0000000), wk =   0.0138889
        k(  105) = (   0.6666667   1.1547005   0.0000000), wk =   0.0138889
        k(  106) = (   0.6666667   1.2509256   0.0000000), wk =   0.0138889
        k(  107) = (   0.6666667   1.3471506   0.0000000), wk =   0.0138889
        k(  108) = (   0.6666667   1.4433757   0.0000000), wk =   0.0138889
        k(  109) = (   0.7500000   0.4330127   0.0000000), wk =   0.0138889
        k(  110) = (   0.7500000   0.5292377   0.0000000), wk =   0.0138889
        k(  111) = (   0.7500000   0.6254628   0.0000000), wk =   0.0138889
        k(  112) = (   0.7500000   0.7216878   0.0000000), wk =   0.0138889
        k(  113) = (   0.7500000   0.8179129   0.0000000), wk =   0.0138889
        k(  114) = (   0.7500000   0.9141379   0.0000000), wk =   0.0138889
        k(  115) = (   0.7500000   1.0103630   0.0000000), wk =   0.0138889
        k(  116) = (   0.7500000   1.1065880   0.0000000), wk =   0.0138889
        k(  117) = (   0.7500000   1.2028131   0.0000000), wk =   0.0138889
        k(  118) = (   0.7500000   1.2990381   0.0000000), wk =   0.0138889
        k(  119) = (   0.7500000   1.3952631   0.0000000), wk =   0.0138889
        k(  120) = (   0.7500000   1.4914882   0.0000000), wk =   0.0138889
        k(  121) = (   0.8333333   0.4811252   0.0000000), wk =   0.0138889
        k(  122) = (   0.8333333   0.5773503   0.0000000), wk =   0.0138889
        k(  123) = (   0.8333333   0.6735753   0.0000000), wk =   0.0138889
        k(  124) = (   0.8333333   0.7698004   0.0000000), wk =   0.0138889
        k(  125) = (   0.8333333   0.8660254   0.0000000), wk =   0.0138889
        k(  126) = (   0.8333333   0.9622505   0.0000000), wk =   0.0138889
        k(  127) = (   0.8333333   1.0584755   0.0000000), wk =   0.0138889
        k(  128) = (   0.8333333   1.1547005   0.0000000), wk =   0.0138889
        k(  129) = (   0.8333333   1.2509256   0.0000000), wk =   0.0138889
        k(  130) = (   0.8333333   1.3471506   0.0000000), wk =   0.0138889
        k(  131) = (   0.8333333   1.4433757   0.0000000), wk =   0.0138889
        k(  132) = (   0.8333333   1.5396007   0.0000000), wk =   0.0138889
        k(  133) = (   0.9166667   0.5292377   0.0000000), wk =   0.0138889
        k(  134) = (   0.9166667   0.6254628   0.0000000), wk =   0.0138889
        k(  135) = (   0.9166667   0.7216878   0.0000000), wk =   0.0138889
        k(  136) = (   0.9166667   0.8179129   0.0000000), wk =   0.0138889
        k(  137) = (   0.9166667   0.9141379   0.0000000), wk =   0.0138889
        k(  138) = (   0.9166667   1.0103630   0.0000000), wk =   0.0138889
        k(  139) = (   0.9166667   1.1065880   0.0000000), wk =   0.0138889
        k(  140) = (   0.9166667   1.2028131   0.0000000), wk =   0.0138889
        k(  141) = (   0.9166667   1.2990381   0.0000000), wk =   0.0138889
        k(  142) = (   0.9166667   1.3952632   0.0000000), wk =   0.0138889
        k(  143) = (   0.9166667   1.4914882   0.0000000), wk =   0.0138889
        k(  144) = (   0.9166667   1.5877132   0.0000000), wk =   0.0138889

                       cryst. coord.
        k(    1) = (   0.0000000   0.0000000   0.0000000), wk =   0.0138889
        k(    2) = (   0.0000000   0.0833333   0.0000000), wk =   0.0138889
        k(    3) = (   0.0000000   0.1666667   0.0000000), wk =   0.0138889
        k(    4) = (   0.0000000   0.2500000   0.0000000), wk =   0.0138889
        k(    5) = (   0.0000000   0.3333333   0.0000000), wk =   0.0138889
        k(    6) = (   0.0000000   0.4166667   0.0000000), wk =   0.0138889
        k(    7) = (   0.0000000   0.5000000   0.0000000), wk =   0.0138889
        k(    8) = (   0.0000000   0.5833333   0.0000000), wk =   0.0138889
        k(    9) = (   0.0000000   0.6666667   0.0000000), wk =   0.0138889
        k(   10) = (   0.0000000   0.7500000   0.0000000), wk =   0.0138889
        k(   11) = (   0.0000000   0.8333333   0.0000000), wk =   0.0138889
        k(   12) = (   0.0000000   0.9166667   0.0000000), wk =   0.0138889
        k(   13) = (   0.0833333  -0.0000000   0.0000000), wk =   0.0138889
        k(   14) = (   0.0833333   0.0833333   0.0000000), wk =   0.0138889
        k(   15) = (   0.0833333   0.1666667   0.0000000), wk =   0.0138889
        k(   16) = (   0.0833333   0.2500000   0.0000000), wk =   0.0138889
        k(   17) = (   0.0833333   0.3333333   0.0000000), wk =   0.0138889
        k(   18) = (   0.0833333   0.4166667   0.0000000), wk =   0.0138889
        k(   19) = (   0.0833333   0.5000000   0.0000000), wk =   0.0138889
        k(   20) = (   0.0833333   0.5833333   0.0000000), wk =   0.0138889
        k(   21) = (   0.0833333   0.6666667   0.0000000), wk =   0.0138889
        k(   22) = (   0.0833333   0.7500000   0.0000000), wk =   0.0138889
        k(   23) = (   0.0833333   0.8333333   0.0000000), wk =   0.0138889
        k(   24) = (   0.0833333   0.9166667   0.0000000), wk =   0.0138889
        k(   25) = (   0.1666667  -0.0000000   0.0000000), wk =   0.0138889
        k(   26) = (   0.1666667   0.0833333   0.0000000), wk =   0.0138889
        k(   27) = (   0.1666667   0.1666667   0.0000000), wk =   0.0138889
        k(   28) = (   0.1666667   0.2500000   0.0000000), wk =   0.0138889
        k(   29) = (   0.1666667   0.3333333   0.0000000), wk =   0.0138889
        k(   30) = (   0.1666667   0.4166667   0.0000000), wk =   0.0138889
        k(   31) = (   0.1666667   0.5000000   0.0000000), wk =   0.0138889
        k(   32) = (   0.1666667   0.5833333   0.0000000), wk =   0.0138889
        k(   33) = (   0.1666667   0.6666667   0.0000000), wk =   0.0138889
        k(   34) = (   0.1666667   0.7500000   0.0000000), wk =   0.0138889
        k(   35) = (   0.1666667   0.8333333   0.0000000), wk =   0.0138889
        k(   36) = (   0.1666667   0.9166667   0.0000000), wk =   0.0138889
        k(   37) = (   0.2500000  -0.0000000   0.0000000), wk =   0.0138889
        k(   38) = (   0.2500000   0.0833333   0.0000000), wk =   0.0138889
        k(   39) = (   0.2500000   0.1666667   0.0000000), wk =   0.0138889
        k(   40) = (   0.2500000   0.2500000   0.0000000), wk =   0.0138889
        k(   41) = (   0.2500000   0.3333333   0.0000000), wk =   0.0138889
        k(   42) = (   0.2500000   0.4166667   0.0000000), wk =   0.0138889
        k(   43) = (   0.2500000   0.5000000   0.0000000), wk =   0.0138889
        k(   44) = (   0.2500000   0.5833333   0.0000000), wk =   0.0138889
        k(   45) = (   0.2500000   0.6666667   0.0000000), wk =   0.0138889
        k(   46) = (   0.2500000   0.7500000   0.0000000), wk =   0.0138889
        k(   47) = (   0.2500000   0.8333333   0.0000000), wk =   0.0138889
        k(   48) = (   0.2500000   0.9166667   0.0000000), wk =   0.0138889
        k(   49) = (   0.3333333  -0.0000000   0.0000000), wk =   0.0138889
        k(   50) = (   0.3333333   0.0833333   0.0000000), wk =   0.0138889
        k(   51) = (   0.3333333   0.1666667   0.0000000), wk =   0.0138889
        k(   52) = (   0.3333333   0.2500000   0.0000000), wk =   0.0138889
        k(   53) = (   0.3333333   0.3333333   0.0000000), wk =   0.0138889
        k(   54) = (   0.3333333   0.4166667   0.0000000), wk =   0.0138889
        k(   55) = (   0.3333333   0.5000000   0.0000000), wk =   0.0138889
        k(   56) = (   0.3333333   0.5833333   0.0000000), wk =   0.0138889
        k(   57) = (   0.3333333   0.6666667   0.0000000), wk =   0.0138889
        k(   58) = (   0.3333333   0.7500000   0.0000000), wk =   0.0138889
        k(   59) = (   0.3333333   0.8333333   0.0000000), wk =   0.0138889
        k(   60) = (   0.3333333   0.9166667   0.0000000), wk =   0.0138889
        k(   61) = (   0.4166667   0.0000000   0.0000000), wk =   0.0138889
        k(   62) = (   0.4166667   0.0833333   0.0000000), wk =   0.0138889
        k(   63) = (   0.4166667   0.1666667   0.0000000), wk =   0.0138889
        k(   64) = (   0.4166667   0.2500000   0.0000000), wk =   0.0138889
        k(   65) = (   0.4166667   0.3333333   0.0000000), wk =   0.0138889
        k(   66) = (   0.4166667   0.4166667   0.0000000), wk =   0.0138889
        k(   67) = (   0.4166667   0.5000000   0.0000000), wk =   0.0138889
        k(   68) = (   0.4166667   0.5833333   0.0000000), wk =   0.0138889
        k(   69) = (   0.4166667   0.6666667   0.0000000), wk =   0.0138889
        k(   70) = (   0.4166667   0.7500000   0.0000000), wk =   0.0138889
        k(   71) = (   0.4166667   0.8333333   0.0000000), wk =   0.0138889
        k(   72) = (   0.4166667   0.9166667   0.0000000), wk =   0.0138889
        k(   73) = (   0.5000000  -0.0000000   0.0000000), wk =   0.0138889
        k(   74) = (   0.5000000   0.0833333   0.0000000), wk =   0.0138889
        k(   75) = (   0.5000000   0.1666667   0.0000000), wk =   0.0138889
        k(   76) = (   0.5000000   0.2500000   0.0000000), wk =   0.0138889
        k(   77) = (   0.5000000   0.3333333   0.0000000), wk =   0.0138889
        k(   78) = (   0.5000000   0.4166667   0.0000000), wk =   0.0138889
        k(   79) = (   0.5000000   0.5000000   0.0000000), wk =   0.0138889
        k(   80) = (   0.5000000   0.5833333   0.0000000), wk =   0.0138889
        k(   81) = (   0.5000000   0.6666667   0.0000000), wk =   0.0138889
        k(   82) = (   0.5000000   0.7500000   0.0000000), wk =   0.0138889
        k(   83) = (   0.5000000   0.8333333   0.0000000), wk =   0.0138889
        k(   84) = (   0.5000000   0.9166667   0.0000000), wk =   0.0138889
        k(   85) = (   0.5833333   0.0000000   0.0000000), wk =   0.0138889
        k(   86) = (   0.5833333   0.0833333   0.0000000), wk =   0.0138889
        k(   87) = (   0.5833333   0.1666667   0.0000000), wk =   0.0138889
        k(   88) = (   0.5833333   0.2500000   0.0000000), wk =   0.0138889
        k(   89) = (   0.5833333   0.3333333   0.0000000), wk =   0.0138889
        k(   90) = (   0.5833333   0.4166667   0.0000000), wk =   0.0138889
        k(   91) = (   0.5833333   0.5000000   0.0000000), wk =   0.0138889
        k(   92) = (   0.5833333   0.5833333   0.0000000), wk =   0.0138889
        k(   93) = (   0.5833333   0.6666667   0.0000000), wk =   0.0138889
        k(   94) = (   0.5833333   0.7500000   0.0000000), wk =   0.0138889
        k(   95) = (   0.5833333   0.8333333   0.0000000), wk =   0.0138889
        k(   96) = (   0.5833333   0.9166667   0.0000000), wk =   0.0138889
        k(   97) = (   0.6666667  -0.0000000   0.0000000), wk =   0.0138889
        k(   98) = (   0.6666667   0.0833333   0.0000000), wk =   0.0138889
        k(   99) = (   0.6666667   0.1666667   0.0000000), wk =   0.0138889
        k(  100) = (   0.6666667   0.2500000   0.0000000), wk =   0.0138889
        k(  101) = (   0.6666667   0.3333333   0.0000000), wk =   0.0138889
        k(  102) = (   0.6666667   0.4166667   0.0000000), wk =   0.0138889
        k(  103) = (   0.6666667   0.5000000   0.0000000), wk =   0.0138889
        k(  104) = (   0.6666667   0.5833333   0.0000000), wk =   0.0138889
        k(  105) = (   0.6666667   0.6666667   0.0000000), wk =   0.0138889
        k(  106) = (   0.6666667   0.7500000   0.0000000), wk =   0.0138889
        k(  107) = (   0.6666667   0.8333333   0.0000000), wk =   0.0138889
        k(  108) = (   0.6666667   0.9166667   0.0000000), wk =   0.0138889
        k(  109) = (   0.7500000  -0.0000000   0.0000000), wk =   0.0138889
        k(  110) = (   0.7500000   0.0833333   0.0000000), wk =   0.0138889
        k(  111) = (   0.7500000   0.1666667   0.0000000), wk =   0.0138889
        k(  112) = (   0.7500000   0.2500000   0.0000000), wk =   0.0138889
        k(  113) = (   0.7500000   0.3333333   0.0000000), wk =   0.0138889
        k(  114) = (   0.7500000   0.4166667   0.0000000), wk =   0.0138889
        k(  115) = (   0.7500000   0.5000000   0.0000000), wk =   0.0138889
        k(  116) = (   0.7500000   0.5833333   0.0000000), wk =   0.0138889
        k(  117) = (   0.7500000   0.6666667   0.0000000), wk =   0.0138889
        k(  118) = (   0.7500000   0.7500000   0.0000000), wk =   0.0138889
        k(  119) = (   0.7500000   0.8333333   0.0000000), wk =   0.0138889
        k(  120) = (   0.7500000   0.9166667   0.0000000), wk =   0.0138889
        k(  121) = (   0.8333333  -0.0000000   0.0000000), wk =   0.0138889
        k(  122) = (   0.8333333   0.0833333   0.0000000), wk =   0.0138889
        k(  123) = (   0.8333333   0.1666667   0.0000000), wk =   0.0138889
        k(  124) = (   0.8333333   0.2500000   0.0000000), wk =   0.0138889
        k(  125) = (   0.8333333   0.3333333   0.0000000), wk =   0.0138889
        k(  126) = (   0.8333333   0.4166667   0.0000000), wk =   0.0138889
        k(  127) = (   0.8333333   0.5000000   0.0000000), wk =   0.0138889
        k(  128) = (   0.8333333   0.5833333   0.0000000), wk =   0.0138889
        k(  129) = (   0.8333333   0.6666667   0.0000000), wk =   0.0138889
        k(  130) = (   0.8333333   0.7500000   0.0000000), wk =   0.0138889
        k(  131) = (   0.8333333   0.8333333   0.0000000), wk =   0.0138889
        k(  132) = (   0.8333333   0.9166667   0.0000000), wk =   0.0138889
        k(  133) = (   0.9166667   0.0000000   0.0000000), wk =   0.0138889
        k(  134) = (   0.9166667   0.0833333   0.0000000), wk =   0.0138889
        k(  135) = (   0.9166667   0.1666667   0.0000000), wk =   0.0138889
        k(  136) = (   0.9166667   0.2500000   0.0000000), wk =   0.0138889
        k(  137) = (   0.9166667   0.3333333   0.0000000), wk =   0.0138889
        k(  138) = (   0.9166667   0.4166667   0.0000000), wk =   0.0138889
        k(  139) = (   0.9166667   0.5000000   0.0000000), wk =   0.0138889
        k(  140) = (   0.9166667   0.5833333   0.0000000), wk =   0.0138889
        k(  141) = (   0.9166667   0.6666667   0.0000000), wk =   0.0138889
        k(  142) = (   0.9166667   0.7500000   0.0000000), wk =   0.0138889
        k(  143) = (   0.9166667   0.8333333   0.0000000), wk =   0.0138889
        k(  144) = (   0.9166667   0.9166667   0.0000000), wk =   0.0138889

     Dense  grid:   112745 G-vectors     FFT dimensions: (  36,  36, 216)

     Smooth grid:    33523 G-vectors     FFT dimensions: (  24,  24, 144)

     Dynamical RAM for                 wfc:       0.25 MB

     Dynamical RAM for     wfc (w. buffer):       0.25 MB

     Dynamical RAM for           str. fact:       0.43 MB

     Dynamical RAM for           local pot:       0.00 MB

     Dynamical RAM for          nlocal pot:       0.25 MB

     Dynamical RAM for                qrad:       0.53 MB

     Dynamical RAM for          rho,v,vnew:       2.89 MB

     Dynamical RAM for           G-vectors:       1.68 MB

     Dynamical RAM for          h,s,v(r/c):       0.05 MB

     Dynamical RAM for          <psi|beta>:       0.00 MB

     Dynamical RAM for                 psi:       0.51 MB

     Dynamical RAM for                hpsi:       0.51 MB

     Dynamical RAM for                spsi:       0.51 MB

     Dynamical RAM for      wfcinit/wfcrot:       0.52 MB

     Dynamical RAM for           addusdens:      19.35 MB

     Estimated static dynamical RAM per process >       9.57 MB

     Estimated max dynamical RAM per process >      28.92 MB

     Estimated total dynamical RAM >     115.68 MB

     The potential is recalculated from file :
     ./work/gr.save/charge-density


     negative rho (up, down):  1.908E-05 0.000E+00
     Starting wfcs are    8 randomized atomic wfcs +    8 random wfcs

     Band Structure Calculation
     Davidson diagonalization with overlap

     Computing kpt #:     1  of   144
     total cpu time spent up to now is        2.1 secs

     Computing kpt #:     2  of   144
     total cpu time spent up to now is        2.9 secs

     Computing kpt #:     3  of   144
     total cpu time spent up to now is        3.5 secs

     Computing kpt #:     4  of   144
     total cpu time spent up to now is        4.2 secs

     Computing kpt #:     5  of   144
     total cpu time spent up to now is        5.1 secs

     Computing kpt #:     6  of   144
     c_bands:  1 eigenvalues not converged
     total cpu time spent up to now is        6.3 secs

     Computing kpt #:     7  of   144
     total cpu time spent up to now is        7.3 secs

     Computing kpt #:     8  of   144
     c_bands:  1 eigenvalues not converged
     total cpu time spent up to now is        8.5 secs

     Computing kpt #:     9  of   144
     total cpu time spent up to now is        9.4 secs

     Computing kpt #:    10  of   144
     total cpu time spent up to now is       10.1 secs

     Computing kpt #:    11  of   144
     total cpu time spent up to now is       10.8 secs

     Computing kpt #:    12  of   144
     total cpu time spent up to now is       11.5 secs

     Computing kpt #:    13  of   144
     total cpu time spent up to now is       12.3 secs

     Computing kpt #:    14  of   144
     total cpu time spent up to now is       12.9 secs

     Computing kpt #:    15  of   144
     total cpu time spent up to now is       13.6 secs

     Computing kpt #:    16  of   144
     total cpu time spent up to now is       14.3 secs

     Computing kpt #:    17  of   144
     total cpu time spent up to now is       15.4 secs

     Computing kpt #:    18  of   144
     total cpu time spent up to now is       16.5 secs

     Computing kpt #:    19  of   144
     total cpu time spent up to now is       17.6 secs

     Computing kpt #:    20  of   144
     total cpu time spent up to now is       18.7 secs

     Computing kpt #:    21  of   144
     total cpu time spent up to now is       19.4 secs

     Computing kpt #:    22  of   144
     total cpu time spent up to now is       20.1 secs

     Computing kpt #:    23  of   144
     total cpu time spent up to now is       20.7 secs

     Computing kpt #:    24  of   144
     total cpu time spent up to now is       21.5 secs

     Computing kpt #:    25  of   144
     total cpu time spent up to now is       22.0 secs

     Computing kpt #:    26  of   144
     total cpu time spent up to now is       22.7 secs

     Computing kpt #:    27  of   144
     total cpu time spent up to now is       23.4 secs

     Computing kpt #:    28  of   144
     total cpu time spent up to now is       24.2 secs

     Computing kpt #:    29  of   144
     total cpu time spent up to now is       25.4 secs

     Computing kpt #:    30  of   144
     total cpu time spent up to now is       26.5 secs

     Computing kpt #:    31  of   144
     total cpu time spent up to now is       27.5 secs

     Computing kpt #:    32  of   144
     total cpu time spent up to now is       28.4 secs

     Computing kpt #:    33  of   144
     total cpu time spent up to now is       29.0 secs

     Computing kpt #:    34  of   144
     total cpu time spent up to now is       29.7 secs

     Computing kpt #:    35  of   144
     total cpu time spent up to now is       30.4 secs

     Computing kpt #:    36  of   144
     total cpu time spent up to now is       31.0 secs

     Computing kpt #:    37  of   144
     total cpu time spent up to now is       31.6 secs

     Computing kpt #:    38  of   144
     total cpu time spent up to now is       32.3 secs

     Computing kpt #:    39  of   144
     total cpu time spent up to now is       33.2 secs

     Computing kpt #:    40  of   144
     total cpu time spent up to now is       34.2 secs

     Computing kpt #:    41  of   144
     total cpu time spent up to now is       35.4 secs

     Computing kpt #:    42  of   144
     total cpu time spent up to now is       37.6 secs

     Computing kpt #:    43  of   144
     total cpu time spent up to now is       38.7 secs

     Computing kpt #:    44  of   144
     total cpu time spent up to now is       39.5 secs

     Computing kpt #:    45  of   144
     total cpu time spent up to now is       40.3 secs

     Computing kpt #:    46  of   144
     total cpu time spent up to now is       41.0 secs

     Computing kpt #:    47  of   144
     total cpu time spent up to now is       41.7 secs

     Computing kpt #:    48  of   144
     total cpu time spent up to now is       42.4 secs

     Computing kpt #:    49  of   144
     total cpu time spent up to now is       43.3 secs

     Computing kpt #:    50  of   144
     total cpu time spent up to now is       44.4 secs

     Computing kpt #:    51  of   144
     total cpu time spent up to now is       45.5 secs

     Computing kpt #:    52  of   144
     total cpu time spent up to now is       46.7 secs

     Computing kpt #:    53  of   144
     c_bands:  1 eigenvalues not converged
     total cpu time spent up to now is       48.3 secs

     Computing kpt #:    54  of   144
     total cpu time spent up to now is       49.5 secs

     Computing kpt #:    55  of   144
     total cpu time spent up to now is       50.6 secs

     Computing kpt #:    56  of   144
     total cpu time spent up to now is       51.6 secs

     Computing kpt #:    57  of   144
     total cpu time spent up to now is       52.3 secs

     Computing kpt #:    58  of   144
     total cpu time spent up to now is       53.0 secs

     Computing kpt #:    59  of   144
     total cpu time spent up to now is       53.7 secs

     Computing kpt #:    60  of   144
     total cpu time spent up to now is       54.4 secs

     Computing kpt #:    61  of   144
     total cpu time spent up to now is       55.5 secs

     Computing kpt #:    62  of   144
     total cpu time spent up to now is       56.6 secs

     Computing kpt #:    63  of   144
     total cpu time spent up to now is       57.7 secs

     Computing kpt #:    64  of   144
     total cpu time spent up to now is       58.8 secs

     Computing kpt #:    65  of   144
     total cpu time spent up to now is       59.9 secs

     Computing kpt #:    66  of   144
     total cpu time spent up to now is       61.0 secs

     Computing kpt #:    67  of   144
     total cpu time spent up to now is       62.1 secs

     Computing kpt #:    68  of   144
     total cpu time spent up to now is       63.1 secs

     Computing kpt #:    69  of   144
     total cpu time spent up to now is       64.1 secs

     Computing kpt #:    70  of   144
     total cpu time spent up to now is       64.8 secs

     Computing kpt #:    71  of   144
     total cpu time spent up to now is       65.6 secs

     Computing kpt #:    72  of   144
     total cpu time spent up to now is       66.6 secs

     Computing kpt #:    73  of   144
     total cpu time spent up to now is       67.9 secs

     Computing kpt #:    74  of   144
     c_bands:  1 eigenvalues not converged
     total cpu time spent up to now is       69.0 secs

     Computing kpt #:    75  of   144
     total cpu time spent up to now is       70.1 secs

     Computing kpt #:    76  of   144
     total cpu time spent up to now is       71.1 secs

     Computing kpt #:    77  of   144
     total cpu time spent up to now is       72.1 secs

     Computing kpt #:    78  of   144
     c_bands:  1 eigenvalues not converged
     total cpu time spent up to now is       73.2 secs

     Computing kpt #:    79  of   144
     total cpu time spent up to now is       74.3 secs

     Computing kpt #:    80  of   144
     c_bands:  1 eigenvalues not converged
     total cpu time spent up to now is       75.4 secs

     Computing kpt #:    81  of   144
     total cpu time spent up to now is       76.5 secs

     Computing kpt #:    82  of   144
     total cpu time spent up to now is       77.5 secs

     Computing kpt #:    83  of   144
     total cpu time spent up to now is       78.5 secs

     Computing kpt #:    84  of   144
     total cpu time spent up to now is       79.7 secs

     Computing kpt #:    85  of   144
     total cpu time spent up to now is       80.9 secs

     Computing kpt #:    86  of   144
     total cpu time spent up to now is       81.8 secs

     Computing kpt #:    87  of   144
     total cpu time spent up to now is       82.6 secs

     Computing kpt #:    88  of   144
     total cpu time spent up to now is       83.4 secs

     Computing kpt #:    89  of   144
     total cpu time spent up to now is       84.3 secs

     Computing kpt #:    90  of   144
     c_bands:  1 eigenvalues not converged
     total cpu time spent up to now is       85.4 secs

     Computing kpt #:    91  of   144
     total cpu time spent up to now is       86.5 secs

     Computing kpt #:    92  of   144
     total cpu time spent up to now is       87.6 secs

     Computing kpt #:    93  of   144
     total cpu time spent up to now is       88.7 secs

     Computing kpt #:    94  of   144
     total cpu time spent up to now is       89.9 secs

     Computing kpt #:    95  of   144
     total cpu time spent up to now is       91.0 secs

     Computing kpt #:    96  of   144
     total cpu time spent up to now is       92.2 secs

     Computing kpt #:    97  of   144
     total cpu time spent up to now is       93.0 secs

     Computing kpt #:    98  of   144
     total cpu time spent up to now is       93.8 secs

     Computing kpt #:    99  of   144
     total cpu time spent up to now is       94.5 secs

     Computing kpt #:   100  of   144
     total cpu time spent up to now is       95.2 secs

     Computing kpt #:   101  of   144
     total cpu time spent up to now is       96.1 secs

     Computing kpt #:   102  of   144
     total cpu time spent up to now is       97.1 secs

     Computing kpt #:   103  of   144
     total cpu time spent up to now is       98.2 secs

     Computing kpt #:   104  of   144
     total cpu time spent up to now is       99.4 secs

     Computing kpt #:   105  of   144
     c_bands:  1 eigenvalues not converged
     total cpu time spent up to now is      101.1 secs

     Computing kpt #:   106  of   144
     total cpu time spent up to now is      102.2 secs

     Computing kpt #:   107  of   144
     total cpu time spent up to now is      103.3 secs

     Computing kpt #:   108  of   144
     total cpu time spent up to now is      104.3 secs

     Computing kpt #:   109  of   144
     total cpu time spent up to now is      105.0 secs

     Computing kpt #:   110  of   144
     total cpu time spent up to now is      105.7 secs

     Computing kpt #:   111  of   144
     total cpu time spent up to now is      106.4 secs

     Computing kpt #:   112  of   144
     total cpu time spent up to now is      107.1 secs

     Computing kpt #:   113  of   144
     total cpu time spent up to now is      107.8 secs

     Computing kpt #:   114  of   144
     total cpu time spent up to now is      108.6 secs

     Computing kpt #:   115  of   144
     total cpu time spent up to now is      109.8 secs

     Computing kpt #:   116  of   144
     total cpu time spent up to now is      110.9 secs

     Computing kpt #:   117  of   144
     total cpu time spent up to now is      112.1 secs

     Computing kpt #:   118  of   144
     total cpu time spent up to now is      113.2 secs

     Computing kpt #:   119  of   144
     total cpu time spent up to now is      114.0 secs

     Computing kpt #:   120  of   144
     total cpu time spent up to now is      114.7 secs

     Computing kpt #:   121  of   144
     total cpu time spent up to now is      115.4 secs

     Computing kpt #:   122  of   144
     total cpu time spent up to now is      116.1 secs

     Computing kpt #:   123  of   144
     total cpu time spent up to now is      116.7 secs

     Computing kpt #:   124  of   144
     total cpu time spent up to now is      117.5 secs

     Computing kpt #:   125  of   144
     total cpu time spent up to now is      118.2 secs

     Computing kpt #:   126  of   144
     total cpu time spent up to now is      118.9 secs

     Computing kpt #:   127  of   144
     total cpu time spent up to now is      120.0 secs

     Computing kpt #:   128  of   144
     total cpu time spent up to now is      121.1 secs

     Computing kpt #:   129  of   144
     total cpu time spent up to now is      122.1 secs

     Computing kpt #:   130  of   144
     total cpu time spent up to now is      123.0 secs

     Computing kpt #:   131  of   144
     total cpu time spent up to now is      123.6 secs

     Computing kpt #:   132  of   144
     total cpu time spent up to now is      124.2 secs

     Computing kpt #:   133  of   144
     total cpu time spent up to now is      125.0 secs

     Computing kpt #:   134  of   144
     total cpu time spent up to now is      125.8 secs

     Computing kpt #:   135  of   144
     total cpu time spent up to now is      126.5 secs

     Computing kpt #:   136  of   144
     total cpu time spent up to now is      127.2 secs

     Computing kpt #:   137  of   144
     total cpu time spent up to now is      128.0 secs

     Computing kpt #:   138  of   144
     total cpu time spent up to now is      129.4 secs

     Computing kpt #:   139  of   144
     c_bands:  1 eigenvalues not converged
     total cpu time spent up to now is      130.6 secs

     Computing kpt #:   140  of   144
     total cpu time spent up to now is      131.8 secs

     Computing kpt #:   141  of   144
     total cpu time spent up to now is      132.9 secs

     Computing kpt #:   142  of   144
     total cpu time spent up to now is      133.7 secs

     Computing kpt #:   143  of   144
     total cpu time spent up to now is      134.3 secs

     Computing kpt #:   144  of   144
     total cpu time spent up to now is      135.0 secs

     ethr =  1.25E-11,  avg # of iterations = 68.9

     total cpu time spent up to now is      135.0 secs

     End of band structure calculation

          k = 0.0000 0.0000 0.0000 (  4149 PWs)   bands (ev):

   -21.2471  -9.3495  -4.7884  -4.7883   1.5010   2.3803   2.7589   4.6750
     5.5237   6.5965   6.5966   8.6431   9.7294   9.7453  10.8478  13.9607

     occupation numbers 
     1.0000   1.0000   1.0000   1.0000   0.0000   0.0000   0.0000   0.0000
     0.0000   0.0000   0.0000   0.0000   0.0000   0.0000   0.0000   0.0000

          k = 0.0000 0.0962 0.0000 (  4170 PWs)   bands (ev):

   -21.0832  -9.1532  -5.4373  -5.1268   1.7246   2.6057   2.9860   4.8985
     5.7419   6.6711   7.2915   8.8596   9.1668   9.9708  11.1468  14.1606

     occupation numbers 
     1.0000   1.0000   1.0000   1.0000   0.0000   0.0000   0.0000   0.0000
     0.0000   0.0000   0.0000   0.0000   0.0000   0.0000   0.0000   0.0000

          k = 0.0000 0.1925 0.0000 (  4194 PWs)   bands (ev):

   -20.5933  -8.5698  -7.0717  -5.9193   2.3951   3.2803   3.6673   5.5661
     6.3590   6.6824   7.6549   9.1330   9.5092  10.6380  12.1046  14.7360

     occupation numbers 
     1.0000   1.0000   1.0000   1.0000   0.0000   0.0000   0.0000   0.0000
     0.0000   0.0000   0.0000   0.0000   0.0000   0.0000   0.0000   0.0000

          k = 0.0000 0.2887 0.0000 (  4186 PWs)   bands (ev):

   -19.7829  -9.1673  -7.6183  -6.7993   3.5104   4.3861   4.8017   5.5507
     6.3333   6.7008   7.5583  10.5733  11.6793  11.7358  13.4545  15.5519

     occupation numbers 
     1.0000   1.0000   1.0000   1.0000   0.0000   0.0000   0.0000   0.0000
     0.0000   0.0000   0.0000   0.0000   0.0000   0.0000   0.0000   0.0000

          k = 0.0000 0.3849 0.0000 (  4180 PWs)   bands (ev):

   -18.6643 -11.3689  -7.5329  -6.3491   3.2005   5.0590   5.9932   6.0099
     6.4110   8.2391   9.1072  12.0018  13.2523  14.0902  14.5087  15.5220

     occupation numbers 
     1.0000   1.0000   1.0000   1.0000   0.0000   0.0000   0.0000   0.0000
     0.0000   0.0000   0.0000   0.0000   0.0000   0.0000   0.0000   0.0000

          k = 0.0000 0.4811 0.0000 (  4172 PWs)   bands (ev):

   -17.2682 -13.4685  -8.0059  -4.9254   1.0633   5.7631   7.0740   7.9846
     8.4388  10.1914  11.0915  12.1256  12.9199  13.8263  13.8849  15.1646

     occupation numbers 
     1.0000   1.0000   1.0000   1.0000   0.0000   0.0000   0.0000   0.0000
     0.0000   0.0000   0.0000   0.0000   0.0000   0.0000   0.0000   0.0000

          k = 0.0000 0.5774 0.0000 (  4184 PWs)   bands (ev):

   -16.0016 -14.9776  -8.1683  -4.0800  -0.0356   5.6852   9.3852   9.5324
    10.2590  10.4795  10.9126  10.9365  12.3051  12.7660  13.4391  13.5051

     occupation numbers 
     1.0000   1.0000   1.0000   1.0000   0.0000   0.0000   0.0000   0.0000
     0.0000   0.0000   0.0000   0.0000   0.0000   0.0000   0.0000   0.0000

          k = 0.0000 0.6736 0.0000 (  4172 PWs)   bands (ev):

   -17.2682 -13.4685  -8.0059  -4.9254   1.0633   5.7631   7.0740   7.9846
     8.4388  10.1914  11.0915  12.1256  12.9199  13.8263  13.8849  15.1646

     occupation numbers 
     1.0000   1.0000   1.0000   1.0000   0.0000   0.0000   0.0000   0.0000
     0.0000   0.0000   0.0000   0.0000   0.0000   0.0000   0.0000   0.0000

          k = 0.0000 0.7698 0.0000 (  4180 PWs)   bands (ev):

   -18.6643 -11.3689  -7.5329  -6.3491   3.2005   5.0590   5.9932   6.0099
     6.4110   8.2391   9.1072  12.0018  13.2523  14.0902  14.5087  15.5220

     occupation numbers 
     1.0000   1.0000   1.0000   1.0000   0.0000   0.0000   0.0000   0.0000
     0.0000   0.0000   0.0000   0.0000   0.0000   0.0000   0.0000   0.0000

          k = 0.0000 0.8660 0.0000 (  4186 PWs)   bands (ev):

   -19.7829  -9.1673  -7.6183  -6.7993   3.5104   4.3861   4.8017   5.5507
     6.3333   6.7008   7.5583  10.5733  11.6793  11.7358  13.4545  15.5519

     occupation numbers 
     1.0000   1.0000   1.0000   1.0000   0.0000   0.0000   0.0000   0.0000
     0.0000   0.0000   0.0000   0.0000   0.0000   0.0000   0.0000   0.0000

          k = 0.0000 0.9623 0.0000 (  4194 PWs)   bands (ev):

   -20.5933  -8.5698  -7.0717  -5.9193   2.3951   3.2803   3.6673   5.5661
     6.3590   6.6824   7.6549   9.1330   9.5092  10.6380  12.1046  14.7360

     occupation numbers 
     1.0000   1.0000   1.0000   1.0000   0.0000   0.0000   0.0000   0.0000
     0.0000   0.0000   0.0000   0.0000   0.0000   0.0000   0.0000   0.0000

          k = 0.0000 1.0585 0.0000 (  4170 PWs)   bands (ev):

   -21.0832  -9.1532  -5.4373  -5.1268   1.7246   2.6057   2.9860   4.8985
     5.7419   6.6711   7.2915   8.8596   9.1668   9.9708  11.1468  14.1606

     occupation numbers 
     1.0000   1.0000   1.0000   1.0000   0.0000   0.0000   0.0000   0.0000
     0.0000   0.0000   0.0000   0.0000   0.0000   0.0000   0.0000   0.0000

          k = 0.0833 0.0481 0.0000 (  4170 PWs)   bands (ev):

   -21.0832  -9.1532  -5.4373  -5.1268   1.7246   2.6057   2.9860   4.8985
     5.7419   6.6711   7.2915   8.8596   9.1668   9.9708  11.1468  14.1606

     occupation numbers 
     1.0000   1.0000   1.0000   1.0000   0.0000   0.0000   0.0000   0.0000
     0.0000   0.0000   0.0000   0.0000   0.0000   0.0000   0.0000   0.0000

          k = 0.0833 0.1443 0.0000 (  4169 PWs)   bands (ev):

   -20.7563  -8.7633  -6.4687  -5.8040   2.1718   3.0558   3.4403   5.3447
     6.1792   6.9811   8.1422   8.1772   9.2907  10.4185  11.8803  14.5443

     occupation numbers 
     1.0000   1.0000   1.0000   1.0000   0.0000   0.0000   0.0000   0.0000
     0.0000   0.0000   0.0000   0.0000   0.0000   0.0000   0.0000   0.0000

          k = 0.0833 0.2406 0.0000 (  4180 PWs)   bands (ev):

   -20.1062  -8.1756  -7.9946  -6.8019   3.0655   3.9523   4.3490   6.2098
     6.4142   6.9605   7.2482   9.7095  10.1389  11.3039  13.4478  15.2031

     occupation numbers 
     1.0000   1.0000   1.0000   1.0000   0.0000   0.0000   0.0000   0.0000
     0.0000   0.0000   0.0000   0.0000   0.0000   0.0000   0.0000   0.0000

          k = 0.0833 0.3368 0.0000 (  4175 PWs)   bands (ev):

   -19.1416 -10.2466  -7.6881  -6.8778   4.2134   4.4016   5.3184   5.7095
     6.8727   7.5640   8.4455  11.3600  11.8266  12.6234  15.2010  15.4484

     occupation numbers 
     1.0000   1.0000   1.0000   1.0000   0.0000   0.0000   0.0000   0.0000
     0.0000   0.0000   0.0000   0.0000   0.0000   0.0000   0.0000   0.0000

          k = 0.0833 0.4330 0.0000 (  4187 PWs)   bands (ev):

   -17.8812 -12.3684  -8.3229  -5.4972   2.0114   6.1530   6.6153   7.0823
     7.5352   9.2983  10.2110  12.6864  13.0469  14.3264  14.4274  15.2061

     occupation numbers 
     1.0000   1.0000   1.0000   1.0000   0.0000   0.0000   0.0000   0.0000
     0.0000   0.0000   0.0000   0.0000   0.0000   0.0000   0.0000   0.0000

          k = 0.0833 0.5292 0.0000 (  4195 PWs)   bands (ev):

   -16.4006 -14.3104  -8.6513  -4.1869   0.2409   6.4217   8.3756   9.2422
     9.7934  10.9055  11.2168  11.8888  12.3882  12.4921  13.5656  14.8192

     occupation numbers 
     1.0000   1.0000   1.0000   1.0000   0.0000   0.0000   0.0000   0.0000
     0.0000   0.0000   0.0000   0.0000   0.0000   0.0000   0.0000   0.0000

          k = 0.0833 0.6255 0.0000 (  4195 PWs)   bands (ev):

   -16.4006 -14.3104  -8.6513  -4.1869   0.2409   6.4217   8.3756   9.2422
     9.7934  10.9055  11.2168  11.8888  12.3882  12.4921  13.5656  14.8192

     occupation numbers 
     1.0000   1.0000   1.0000   1.0000   0.0000   0.0000   0.0000   0.0000
     0.0000   0.0000   0.0000   0.0000   0.0000   0.0000   0.0000   0.0000

          k = 0.0833 0.7217 0.0000 (  4187 PWs)   bands (ev):

   -17.8812 -12.3683  -8.3229  -5.4972   2.0114   6.1530   6.6153   7.0823
     7.5352   9.2983  10.2110  12.6864  13.0469  14.3264  14.4274  15.2061

     occupation numbers 
     1.0000   1.0000   1.0000   1.0000   0.0000   0.0000   0.0000   0.0000
     0.0000   0.0000   0.0000   0.0000   0.0000   0.0000   0.0000   0.0000

          k = 0.0833 0.8179 0.0000 (  4175 PWs)   bands (ev):

   -19.1416 -10.2466  -7.6881  -6.8779   4.2134   4.4016   5.3184   5.7095
     6.8727   7.5640   8.4455  11.3600  11.8266  12.6234  15.2010  15.4484

     occupation numbers 
     1.0000   1.0000   1.0000   1.0000   0.0000   0.0000   0.0000   0.0000
     0.0000   0.0000   0.0000   0.0000   0.0000   0.0000   0.0000   0.0000

          k = 0.0833 0.9141 0.0000 (  4180 PWs)   bands (ev):

   -20.1062  -8.1756  -7.9946  -6.8020   3.0655   3.9523   4.3490   6.2098
     6.4142   6.9605   7.2482   9.7095  10.1389  11.3039  13.4478  15.2031

     occupation numbers 
     1.0000   1.0000   1.0000   1.0000   0.0000   0.0000   0.0000   0.0000
     0.0000   0.0000   0.0000   0.0000   0.0000   0.0000   0.0000   0.0000

          k = 0.0833 1.0104 0.0000 (  4169 PWs)   bands (ev):

   -20.7563  -8.7633  -6.4686  -5.8041   2.1718   3.0558   3.4403   5.3447
     6.1792   6.9810   8.1422   8.1773   9.2907  10.4185  11.8803  14.5443

     occupation numbers 
     1.0000   1.0000   1.0000   1.0000   0.0000   0.0000   0.0000   0.0000
     0.0000   0.0000   0.0000   0.0000   0.0000   0.0000   0.0000   0.0000

          k = 0.0833 1.1066 0.0000 (  4170 PWs)   bands (ev):

   -21.0832  -9.1532  -5.4372  -5.1268   1.7246   2.6057   2.9860   4.8985
     5.7419   6.6710   7.2916   8.8596   9.1668   9.9708  11.1468  14.1606

     occupation numbers 
     1.0000   1.0000   1.0000   1.0000   0.0000   0.0000   0.0000   0.0000
     0.0000   0.0000   0.0000   0.0000   0.0000   0.0000   0.0000   0.0000

          k = 0.1667 0.0962 0.0000 (  4194 PWs)   bands (ev):

   -20.5933  -8.5698  -7.0717  -5.9193   2.3951   3.2803   3.6673   5.5661
     6.3590   6.6824   7.6549   9.1330   9.5092  10.6380  12.1046  14.7360

     occupation numbers 
     1.0000   1.0000   1.0000   1.0000   0.0000   0.0000   0.0000   0.0000
     0.0000   0.0000   0.0000   0.0000   0.0000   0.0000   0.0000   0.0000

          k = 0.1667 0.1925 0.0000 (  4180 PWs)   bands (ev):

   -20.1062  -8.1756  -7.9946  -6.8019   3.0655   3.9523   4.3490   6.2098
     6.4142   6.9605   7.2482   9.7095  10.1389  11.3039  13.4478  15.2031

     occupation numbers 
     1.0000   1.0000   1.0000   1.0000   0.0000   0.0000   0.0000   0.0000
     0.0000   0.0000   0.0000   0.0000   0.0000   0.0000   0.0000   0.0000

          k = 0.1667 0.2887 0.0000 (  4170 PWs)   bands (ev):

   -19.3017  -9.5035  -8.1636  -7.0568   4.1810   4.6711   5.0662   5.4850
     7.3263   8.0893   8.4259   9.8380  11.1183  12.3996  15.1353  15.6119

     occupation numbers 
     1.0000   1.0000   1.0000   1.0000   0.0000   0.0000   0.0000   0.0000
     0.0000   0.0000   0.0000   0.0000   0.0000   0.0000   0.0000   0.0000

          k = 0.1667 0.3849 0.0000 (  4172 PWs)   bands (ev):

   -18.1939 -11.2295  -9.2193  -5.8028   2.7213   5.7338   6.6033   7.0724
     8.5170   8.8103   9.7759  11.2794  12.0849  13.9076  14.2927  16.5113

     occupation numbers 
     1.0000   1.0000   1.0000   1.0000   0.0000   0.0000   0.0000   0.0000
     0.0000   0.0000   0.0000   0.0000   0.0000   0.0000   0.0000   0.0000

          k = 0.1667 0.4811 0.0000 (  4170 PWs)   bands (ev):

   -16.8178 -13.1401  -9.7947  -4.3749   0.8072   7.6969   8.3311   8.4852
     9.1173  10.4521  11.7124  12.1586  12.1816  14.2602  14.3754  15.1662

     occupation numbers 
     1.0000   1.0000   1.0000   1.0000   0.0000   0.0000   0.0000   0.0000
     0.0000   0.0000   0.0000   0.0000   0.0000   0.0000   0.0000   0.0000

          k = 0.1667 0.5774 0.0000 (  4178 PWs)   bands (ev):

   -15.5808 -14.5775  -9.9793  -3.4815  -0.2620   8.2268   9.8976   9.9495
    10.1427  11.1576  11.5657  11.6011  12.1909  13.4421  13.8662  14.0799

     occupation numbers 
     1.0000   1.0000   1.0000   1.0000   0.0000   0.0000   0.0000   0.0000
     0.0000   0.0000   0.0000   0.0000   0.0000   0.0000   0.0000   0.0000

          k = 0.1667 0.6736 0.0000 (  4170 PWs)   bands (ev):

   -16.8178 -13.1401  -9.7947  -4.3749   0.8072   7.6969   8.3311   8.4852
     9.1173  10.4521  11.7124  12.1586  12.1816  14.2602  14.3754  15.1662

     occupation numbers 
     1.0000   1.0000   1.0000   1.0000   0.0000   0.0000   0.0000   0.0000
     0.0000   0.0000   0.0000   0.0000   0.0000   0.0000   0.0000   0.0000

          k = 0.1667 0.7698 0.0000 (  4172 PWs)   bands (ev):

   -18.1939 -11.2294  -9.2194  -5.8028   2.7214   5.7338   6.6033   7.0724
     8.5170   8.8103   9.7759  11.2794  12.0849  13.9076  14.2927  16.5113

     occupation numbers 
     1.0000   1.0000   1.0000   1.0000   0.0000   0.0000   0.0000   0.0000
     0.0000   0.0000   0.0000   0.0000   0.0000   0.0000   0.0000   0.0000

          k = 0.1667 0.8660 0.0000 (  4170 PWs)   bands (ev):

   -19.3017  -9.5034  -8.1637  -7.0568   4.1810   4.6711   5.0662   5.4850
     7.3263   8.0892   8.4259   9.8381  11.1183  12.3996  15.1353  15.6119

     occupation numbers 
     1.0000   1.0000   1.0000   1.0000   0.0000   0.0000   0.0000   0.0000
     0.0000   0.0000   0.0000   0.0000   0.0000   0.0000   0.0000   0.0000

          k = 0.1667 0.9623 0.0000 (  4180 PWs)   bands (ev):

   -20.1062  -8.1755  -7.9946  -6.8020   3.0655   3.9522   4.3490   6.2098
     6.4142   6.9605   7.2482   9.7096  10.1389  11.3039  13.4478  15.2031

     occupation numbers 
     1.0000   1.0000   1.0000   1.0000   0.0000   0.0000   0.0000   0.0000
     0.0000   0.0000   0.0000   0.0000   0.0000   0.0000   0.0000   0.0000

          k = 0.1667 1.0585 0.0000 (  4194 PWs)   bands (ev):

   -20.5933  -8.5698  -7.0716  -5.9194   2.3951   3.2803   3.6673   5.5661
     6.3589   6.6824   7.6549   9.1331   9.5092  10.6380  12.1046  14.7360

     occupation numbers 
     1.0000   1.0000   1.0000   1.0000   0.0000   0.0000   0.0000   0.0000
     0.0000   0.0000   0.0000   0.0000   0.0000   0.0000   0.0000   0.0000

          k = 0.1667 1.1547 0.0000 (  4169 PWs)   bands (ev):

   -20.7563  -8.7633  -6.4686  -5.8041   2.1718   3.0558   3.4403   5.3447
     6.1792   6.9810   8.1422   8.1773   9.2907  10.4185  11.8803  14.5443

     occupation numbers 
     1.0000   1.0000   1.0000   1.0000   0.0000   0.0000   0.0000   0.0000
     0.0000   0.0000   0.0000   0.0000   0.0000   0.0000   0.0000   0.0000

          k = 0.2500 0.1443 0.0000 (  4186 PWs)   bands (ev):

   -19.7829  -9.1673  -7.6183  -6.7993   3.5104   4.3861   4.8017   5.5507
     6.3333   6.7008   7.5583  10.5733  11.6793  11.7358  13.4545  15.5519

     occupation numbers 
     1.0000   1.0000   1.0000   1.0000   0.0000   0.0000   0.0000   0.0000
     0.0000   0.0000   0.0000   0.0000   0.0000   0.0000   0.0000   0.0000

          k = 0.2500 0.2406 0.0000 (  4175 PWs)   bands (ev):

   -19.1416 -10.2466  -7.6881  -6.8778   4.2134   4.4016   5.3184   5.7095
     6.8727   7.5640   8.4455  11.3600  11.8266  12.6234  15.2010  15.4484

     occupation numbers 
     1.0000   1.0000   1.0000   1.0000   0.0000   0.0000   0.0000   0.0000
     0.0000   0.0000   0.0000   0.0000   0.0000   0.0000   0.0000   0.0000

          k = 0.2500 0.3368 0.0000 (  4172 PWs)   bands (ev):

   -18.1939 -11.2295  -9.2193  -5.8028   2.7213   5.7338   6.6033   7.0724
     8.5170   8.8103   9.7759  11.2794  12.0849  13.9076  14.2927  16.5113

     occupation numbers 
     1.0000   1.0000   1.0000   1.0000   0.0000   0.0000   0.0000   0.0000
     0.0000   0.0000   0.0000   0.0000   0.0000   0.0000   0.0000   0.0000

          k = 0.2500 0.4330 0.0000 (  4156 PWs)   bands (ev):

   -16.9656 -12.2625 -10.7033  -4.4591   1.1054   7.4873   8.1956   8.8821
    10.1113  10.4949  10.9235  11.5489  11.9138  15.0343  15.5175  15.9574

     occupation numbers 
     1.0000   1.0000   1.0000   1.0000   0.0000   0.0000   0.0000   0.0000
     0.0000   0.0000   0.0000   0.0000   0.0000   0.0000   0.0000   0.0000

          k = 0.2500 0.5292 0.0000 (  4161 PWs)   bands (ev):

   -15.5426 -13.6844 -11.4103  -3.0722  -0.4162   9.1635   9.5881  10.4891
    11.1233  11.2294  11.5832  13.1471  13.4947  13.7017  13.9519  14.7301

     occupation numbers 
     1.0000   1.0000   1.0000   1.0000   0.0000   0.0000   0.0000   0.0000
     0.0000   0.0000   0.0000   0.0000   0.0000   0.0000   0.0000   0.0000

          k = 0.2500 0.6255 0.0000 (  4161 PWs)   bands (ev):

   -15.5426 -13.6844 -11.4104  -3.0722  -0.4162   9.1635   9.5881  10.4892
    11.1233  11.2294  11.5832  13.1471  13.4947  13.7017  13.9519  14.7301

     occupation numbers 
     1.0000   1.0000   1.0000   1.0000   0.0000   0.0000   0.0000   0.0000
     0.0000   0.0000   0.0000   0.0000   0.0000   0.0000   0.0000   0.0000

          k = 0.2500 0.7217 0.0000 (  4156 PWs)   bands (ev):

   -16.9656 -12.2624 -10.7034  -4.4591   1.1054   7.4873   8.1956   8.8821
    10.1113  10.4948  10.9235  11.5489  11.9138  15.0343  15.5175  15.9574

     occupation numbers 
     1.0000   1.0000   1.0000   1.0000   0.0000   0.0000   0.0000   0.0000
     0.0000   0.0000   0.0000   0.0000   0.0000   0.0000   0.0000   0.0000

          k = 0.2500 0.8179 0.0000 (  4172 PWs)   bands (ev):

   -18.1939 -11.2294  -9.2194  -5.8028   2.7214   5.7338   6.6033   7.0724
     8.5169   8.8103   9.7759  11.2794  12.0849  13.9076  14.2927  16.5113

     occupation numbers 
     1.0000   1.0000   1.0000   1.0000   0.0000   0.0000   0.0000   0.0000
     0.0000   0.0000   0.0000   0.0000   0.0000   0.0000   0.0000   0.0000

          k = 0.2500 0.9141 0.0000 (  4175 PWs)   bands (ev):

   -19.1416 -10.2465  -7.6881  -6.8779   4.2135   4.4016   5.3184   5.7095
     6.8727   7.5640   8.4455  11.3600  11.8266  12.6234  15.2010  15.4484

     occupation numbers 
     1.0000   1.0000   1.0000   1.0000   0.0000   0.0000   0.0000   0.0000
     0.0000   0.0000   0.0000   0.0000   0.0000   0.0000   0.0000   0.0000

          k = 0.2500 1.0104 0.0000 (  4186 PWs)   bands (ev):

   -19.7829  -9.1673  -7.6183  -6.7993   3.5104   4.3861   4.8017   5.5508
     6.3333   6.7008   7.5583  10.5733  11.6793  11.7358  13.4545  15.5519

     occupation numbers 
     1.0000   1.0000   1.0000   1.0000   0.0000   0.0000   0.0000   0.0000
     0.0000   0.0000   0.0000   0.0000   0.0000   0.0000   0.0000   0.0000

          k = 0.2500 1.1066 0.0000 (  4180 PWs)   bands (ev):

   -20.1062  -8.1755  -7.9946  -6.8020   3.0655   3.9522   4.3490   6.2098
     6.4142   6.9605   7.2482   9.7096  10.1389  11.3039  13.4478  15.2031

     occupation numbers 
     1.0000   1.0000   1.0000   1.0000   0.0000   0.0000   0.0000   0.0000
     0.0000   0.0000   0.0000   0.0000   0.0000   0.0000   0.0000   0.0000

          k = 0.2500 1.2028 0.0000 (  4180 PWs)   bands (ev):

   -20.1062  -8.1756  -7.9946  -6.8020   3.0655   3.9523   4.3490   6.2098
     6.4142   6.9605   7.2482   9.7095  10.1389  11.3039  13.4478  15.2031

     occupation numbers 
     1.0000   1.0000   1.0000   1.0000   0.0000   0.0000   0.0000   0.0000
     0.0000   0.0000   0.0000   0.0000   0.0000   0.0000   0.0000   0.0000

          k = 0.3333 0.1925 0.0000 (  4180 PWs)   bands (ev):

   -18.6643 -11.3689  -7.5329  -6.3491   3.2005   5.0590   5.9932   6.0099
     6.4110   8.2391   9.1072  12.0018  13.2523  14.0902  14.5087  15.5220

     occupation numbers 
     1.0000   1.0000   1.0000   1.0000   0.0000   0.0000   0.0000   0.0000
     0.0000   0.0000   0.0000   0.0000   0.0000   0.0000   0.0000   0.0000

          k = 0.3333 0.2887 0.0000 (  4187 PWs)   bands (ev):

   -17.8812 -12.3684  -8.3229  -5.4972   2.0114   6.1530   6.6153   7.0823
     7.5352   9.2983  10.2110  12.6864  13.0469  14.3264  14.4274  15.2061

     occupation numbers 
     1.0000   1.0000   1.0000   1.0000   0.0000   0.0000   0.0000   0.0000
     0.0000   0.0000   0.0000   0.0000   0.0000   0.0000   0.0000   0.0000

          k = 0.3333 0.3849 0.0000 (  4170 PWs)   bands (ev):

   -16.8178 -13.1401  -9.7947  -4.3749   0.8072   7.6969   8.3311   8.4852
     9.1173  10.4521  11.7124  12.1586  12.1816  14.2602  14.3754  15.1662

     occupation numbers 
     1.0000   1.0000   1.0000   1.0000   0.0000   0.0000   0.0000   0.0000
     0.0000   0.0000   0.0000   0.0000   0.0000   0.0000   0.0000   0.0000

          k = 0.3333 0.4811 0.0000 (  4161 PWs)   bands (ev):

   -15.5426 -13.6844 -11.4103  -3.0722  -0.4162   9.1635   9.5881  10.4891
    11.1233  11.2294  11.5832  13.1471  13.4947  13.7017  13.9519  14.7301

     occupation numbers 
     1.0000   1.0000   1.0000   1.0000   0.0000   0.0000   0.0000   0.0000
     0.0000   0.0000   0.0000   0.0000   0.0000   0.0000   0.0000   0.0000

          k = 0.3333 0.5774 0.0000 (  4152 PWs)   bands (ev):

   -14.3246 -14.3245 -12.3093  -1.7152  -1.7152   8.9033  11.1691  11.1692
    11.7701  13.1854  13.1854  13.3578  13.3578  13.5378  13.9860  14.3807

     occupation numbers 
     1.0000   1.0000   1.0000   0.5001   0.4999   0.0000   0.0000   0.0000
     0.0000   0.0000   0.0000   0.0000   0.0000   0.0000   0.0000   0.0000

          k = 0.3333 0.6736 0.0000 (  4161 PWs)   bands (ev):

   -15.5426 -13.6843 -11.4104  -3.0723  -0.4161   9.1635   9.5881  10.4891
    11.1233  11.2294  11.5832  13.1471  13.4947  13.7017  13.9519  14.7301

     occupation numbers 
     1.0000   1.0000   1.0000   1.0000   0.0000   0.0000   0.0000   0.0000
     0.0000   0.0000   0.0000   0.0000   0.0000   0.0000   0.0000   0.0000

          k = 0.3333 0.7698 0.0000 (  4170 PWs)   bands (ev):

   -16.8178 -13.1401  -9.7947  -4.3750   0.8072   7.6969   8.3310   8.4852
     9.1173  10.4521  11.7124  12.1586  12.1816  14.2602  14.3754  15.1662

     occupation numbers 
     1.0000   1.0000   1.0000   1.0000   0.0000   0.0000   0.0000   0.0000
     0.0000   0.0000   0.0000   0.0000   0.0000   0.0000   0.0000   0.0000

          k = 0.3333 0.8660 0.0000 (  4187 PWs)   bands (ev):

   -17.8812 -12.3683  -8.3230  -5.4973   2.0114   6.1530   6.6152   7.0823
     7.5352   9.2983  10.2110  12.6864  13.0469  14.3264  14.4274  15.2061

     occupation numbers 
     1.0000   1.0000   1.0000   1.0000   0.0000   0.0000   0.0000   0.0000
     0.0000   0.0000   0.0000   0.0000   0.0000   0.0000   0.0000   0.0000

          k = 0.3333 0.9623 0.0000 (  4180 PWs)   bands (ev):

   -18.6643 -11.3689  -7.5329  -6.3491   3.2006   5.0590   5.9932   6.0098
     6.4110   8.2391   9.1072  12.0018  13.2522  14.0902  14.5088  15.5220

     occupation numbers 
     1.0000   1.0000   1.0000   1.0000   0.0000   0.0000   0.0000   0.0000
     0.0000   0.0000   0.0000   0.0000   0.0000   0.0000   0.0000   0.0000

          k = 0.3333 1.0585 0.0000 (  4175 PWs)   bands (ev):

   -19.1416 -10.2465  -7.6881  -6.8779   4.2135   4.4016   5.3184   5.7095
     6.8727   7.5640   8.4455  11.3600  11.8266  12.6234  15.2010  15.4484

     occupation numbers 
     1.0000   1.0000   1.0000   1.0000   0.0000   0.0000   0.0000   0.0000
     0.0000   0.0000   0.0000   0.0000   0.0000   0.0000   0.0000   0.0000

          k = 0.3333 1.1547 0.0000 (  4170 PWs)   bands (ev):

   -19.3017  -9.5034  -8.1637  -7.0568   4.1810   4.6711   5.0662   5.4850
     7.3263   8.0892   8.4259   9.8381  11.1183  12.3996  15.1353  15.6119

     occupation numbers 
     1.0000   1.0000   1.0000   1.0000   0.0000   0.0000   0.0000   0.0000
     0.0000   0.0000   0.0000   0.0000   0.0000   0.0000   0.0000   0.0000

          k = 0.3333 1.2509 0.0000 (  4175 PWs)   bands (ev):

   -19.1416 -10.2466  -7.6881  -6.8779   4.2134   4.4016   5.3184   5.7095
     6.8727   7.5640   8.4455  11.3600  11.8266  12.6234  15.2010  15.4484

     occupation numbers 
     1.0000   1.0000   1.0000   1.0000   0.0000   0.0000   0.0000   0.0000
     0.0000   0.0000   0.0000   0.0000   0.0000   0.0000   0.0000   0.0000

          k = 0.4167 0.2406 0.0000 (  4172 PWs)   bands (ev):

   -17.2682 -13.4685  -8.0059  -4.9254   1.0633   5.7631   7.0740   7.9846
     8.4388  10.1914  11.0915  12.1256  12.9199  13.8263  13.8849  15.1646

     occupation numbers 
     1.0000   1.0000   1.0000   1.0000   0.0000   0.0000   0.0000   0.0000
     0.0000   0.0000   0.0000   0.0000   0.0000   0.0000   0.0000   0.0000

          k = 0.4167 0.3368 0.0000 (  4195 PWs)   bands (ev):

   -16.4006 -14.3104  -8.6513  -4.1869   0.2409   6.4217   8.3756   9.2422
     9.7934  10.9055  11.2168  11.8888  12.3882  12.4921  13.5656  14.8192

     occupation numbers 
     1.0000   1.0000   1.0000   1.0000   0.0000   0.0000   0.0000   0.0000
     0.0000   0.0000   0.0000   0.0000   0.0000   0.0000   0.0000   0.0000

          k = 0.4167 0.4330 0.0000 (  4178 PWs)   bands (ev):

   -15.5808 -14.5775  -9.9793  -3.4815  -0.2620   8.2268   9.8976   9.9495
    10.1427  11.1576  11.5657  11.6011  12.1909  13.4421  13.8662  14.0799

     occupation numbers 
     1.0000   1.0000   1.0000   1.0000   0.0000   0.0000   0.0000   0.0000
     0.0000   0.0000   0.0000   0.0000   0.0000   0.0000   0.0000   0.0000

          k = 0.4167 0.5292 0.0000 (  4161 PWs)   bands (ev):

   -15.5426 -13.6844 -11.4104  -3.0722  -0.4162   9.1635   9.5881  10.4892
    11.1233  11.2294  11.5832  13.1471  13.4947  13.7017  13.9519  14.7301

     occupation numbers 
     1.0000   1.0000   1.0000   1.0000   0.0000   0.0000   0.0000   0.0000
     0.0000   0.0000   0.0000   0.0000   0.0000   0.0000   0.0000   0.0000

          k = 0.4167 0.6255 0.0000 (  4161 PWs)   bands (ev):

   -15.5426 -13.6843 -11.4104  -3.0723  -0.4161   9.1635   9.5881  10.4891
    11.1233  11.2294  11.5832  13.1471  13.4947  13.7017  13.9519  14.7301

     occupation numbers 
     1.0000   1.0000   1.0000   1.0000   0.0000   0.0000   0.0000   0.0000
     0.0000   0.0000   0.0000   0.0000   0.0000   0.0000   0.0000   0.0000

          k = 0.4167 0.7217 0.0000 (  4178 PWs)   bands (ev):

   -15.5809 -14.5774  -9.9794  -3.4815  -0.2620   8.2267   9.8976   9.9495
    10.1427  11.1576  11.5657  11.6011  12.1909  13.4421  13.8662  14.0799

     occupation numbers 
     1.0000   1.0000   1.0000   1.0000   0.0000   0.0000   0.0000   0.0000
     0.0000   0.0000   0.0000   0.0000   0.0000   0.0000   0.0000   0.0000

          k = 0.4167 0.8179 0.0000 (  4195 PWs)   bands (ev):

   -16.4007 -14.3103  -8.6514  -4.1869   0.2410   6.4217   8.3756   9.2422
     9.7934  10.9055  11.2168  11.8888  12.3882  12.4921  13.5656  14.8192

     occupation numbers 
     1.0000   1.0000   1.0000   1.0000   0.0000   0.0000   0.0000   0.0000
     0.0000   0.0000   0.0000   0.0000   0.0000   0.0000   0.0000   0.0000

          k = 0.4167 0.9141 0.0000 (  4172 PWs)   bands (ev):

   -17.2682 -13.4685  -8.0060  -4.9254   1.0633   5.7630   7.0740   7.9846
     8.4388  10.1914  11.0915  12.1256  12.9198  13.8263  13.8849  15.1646

     occupation numbers 
     1.0000   1.0000   1.0000   1.0000   0.0000   0.0000   0.0000   0.0000
[...]
     0.0000   0.0000   0.0000   0.0000   0.0000   0.0000   0.0000   0.0000

          k = 0.6667 0.7698 0.0000 (  4180 PWs)   bands (ev):

   -18.6643 -11.3689  -7.5329  -6.3491   3.2006   5.0590   5.9932   6.0098
     6.4110   8.2391   9.1072  12.0018  13.2522  14.0902  14.5088  15.5220

     occupation numbers 
     1.0000   1.0000   1.0000   1.0000   0.0000   0.0000   0.0000   0.0000
     0.0000   0.0000   0.0000   0.0000   0.0000   0.0000   0.0000   0.0000

          k = 0.6667 0.8660 0.0000 (  4187 PWs)   bands (ev):

   -17.8812 -12.3683  -8.3230  -5.4973   2.0114   6.1530   6.6152   7.0823
     7.5352   9.2983  10.2110  12.6864  13.0469  14.3264  14.4274  15.2061

     occupation numbers 
     1.0000   1.0000   1.0000   1.0000   0.0000   0.0000   0.0000   0.0000
     0.0000   0.0000   0.0000   0.0000   0.0000   0.0000   0.0000   0.0000

          k = 0.6667 0.9623 0.0000 (  4170 PWs)   bands (ev):

   -16.8178 -13.1401  -9.7947  -4.3750   0.8072   7.6969   8.3310   8.4852
     9.1173  10.4521  11.7124  12.1586  12.1816  14.2602  14.3754  15.1662

     occupation numbers 
     1.0000   1.0000   1.0000   1.0000   0.0000   0.0000   0.0000   0.0000
     0.0000   0.0000   0.0000   0.0000   0.0000   0.0000   0.0000   0.0000

          k = 0.6667 1.0585 0.0000 (  4161 PWs)   bands (ev):

   -15.5426 -13.6843 -11.4104  -3.0723  -0.4161   9.1635   9.5881  10.4891
    11.1233  11.2294  11.5832  13.1471  13.4947  13.7017  13.9519  14.7301

     occupation numbers 
     1.0000   1.0000   1.0000   1.0000   0.0000   0.0000   0.0000   0.0000
     0.0000   0.0000   0.0000   0.0000   0.0000   0.0000   0.0000   0.0000

          k = 0.6667 1.1547 0.0000 (  4152 PWs)   bands (ev):

   -14.3246 -14.3245 -12.3093  -1.7152  -1.7152   8.9033  11.1691  11.1692
    11.7701  13.1854  13.1854  13.3578  13.3578  13.5378  13.9860  14.3807

     occupation numbers 
     1.0000   1.0000   1.0000   0.5001   0.4999   0.0000   0.0000   0.0000
     0.0000   0.0000   0.0000   0.0000   0.0000   0.0000   0.0000   0.0000

          k = 0.6667 1.2509 0.0000 (  4161 PWs)   bands (ev):

   -15.5426 -13.6844 -11.4103  -3.0722  -0.4162   9.1635   9.5881  10.4891
    11.1233  11.2294  11.5832  13.1471  13.4947  13.7017  13.9519  14.7301

     occupation numbers 
     1.0000   1.0000   1.0000   1.0000   0.0000   0.0000   0.0000   0.0000
     0.0000   0.0000   0.0000   0.0000   0.0000   0.0000   0.0000   0.0000

          k = 0.6667 1.3472 0.0000 (  4170 PWs)   bands (ev):

   -16.8178 -13.1401  -9.7947  -4.3749   0.8072   7.6969   8.3311   8.4852
     9.1173  10.4521  11.7124  12.1586  12.1816  14.2602  14.3754  15.1662

     occupation numbers 
     1.0000   1.0000   1.0000   1.0000   0.0000   0.0000   0.0000   0.0000
     0.0000   0.0000   0.0000   0.0000   0.0000   0.0000   0.0000   0.0000

          k = 0.6667 1.4434 0.0000 (  4187 PWs)   bands (ev):

   -17.8812 -12.3684  -8.3229  -5.4972   2.0114   6.1530   6.6153   7.0823
     7.5352   9.2983  10.2110  12.6864  13.0469  14.3264  14.4274  15.2061

     occupation numbers 
     1.0000   1.0000   1.0000   1.0000   0.0000   0.0000   0.0000   0.0000
     0.0000   0.0000   0.0000   0.0000   0.0000   0.0000   0.0000   0.0000

          k = 0.7500 0.4330 0.0000 (  4186 PWs)   bands (ev):

   -19.7829  -9.1673  -7.6183  -6.7993   3.5104   4.3861   4.8017   5.5507
     6.3333   6.7008   7.5583  10.5733  11.6793  11.7358  13.4545  15.5519

     occupation numbers 
     1.0000   1.0000   1.0000   1.0000   0.0000   0.0000   0.0000   0.0000
     0.0000   0.0000   0.0000   0.0000   0.0000   0.0000   0.0000   0.0000

          k = 0.7500 0.5292 0.0000 (  4180 PWs)   bands (ev):

   -20.1062  -8.1756  -7.9946  -6.8020   3.0655   3.9523   4.3490   6.2098
     6.4142   6.9605   7.2482   9.7095  10.1389  11.3039  13.4478  15.2031

     occupation numbers 
     1.0000   1.0000   1.0000   1.0000   0.0000   0.0000   0.0000   0.0000
     0.0000   0.0000   0.0000   0.0000   0.0000   0.0000   0.0000   0.0000

          k = 0.7500 0.6255 0.0000 (  4180 PWs)   bands (ev):

   -20.1062  -8.1755  -7.9946  -6.8020   3.0655   3.9522   4.3490   6.2098
     6.4142   6.9605   7.2482   9.7096  10.1389  11.3039  13.4478  15.2031

     occupation numbers 
     1.0000   1.0000   1.0000   1.0000   0.0000   0.0000   0.0000   0.0000
     0.0000   0.0000   0.0000   0.0000   0.0000   0.0000   0.0000   0.0000

          k = 0.7500 0.7217 0.0000 (  4186 PWs)   bands (ev):

   -19.7829  -9.1673  -7.6183  -6.7993   3.5104   4.3861   4.8017   5.5508
     6.3333   6.7008   7.5583  10.5733  11.6793  11.7358  13.4545  15.5519

     occupation numbers 
     1.0000   1.0000   1.0000   1.0000   0.0000   0.0000   0.0000   0.0000
     0.0000   0.0000   0.0000   0.0000   0.0000   0.0000   0.0000   0.0000

          k = 0.7500 0.8179 0.0000 (  4175 PWs)   bands (ev):

   -19.1416 -10.2465  -7.6881  -6.8779   4.2135   4.4016   5.3184   5.7095
     6.8727   7.5640   8.4455  11.3600  11.8266  12.6234  15.2010  15.4484

     occupation numbers 
     1.0000   1.0000   1.0000   1.0000   0.0000   0.0000   0.0000   0.0000
     0.0000   0.0000   0.0000   0.0000   0.0000   0.0000   0.0000   0.0000

          k = 0.7500 0.9141 0.0000 (  4172 PWs)   bands (ev):

   -18.1939 -11.2294  -9.2194  -5.8028   2.7214   5.7338   6.6033   7.0724
     8.5169   8.8103   9.7759  11.2794  12.0849  13.9076  14.2927  16.5113

     occupation numbers 
     1.0000   1.0000   1.0000   1.0000   0.0000   0.0000   0.0000   0.0000
     0.0000   0.0000   0.0000   0.0000   0.0000   0.0000   0.0000   0.0000

          k = 0.7500 1.0104 0.0000 (  4156 PWs)   bands (ev):

   -16.9656 -12.2624 -10.7034  -4.4591   1.1054   7.4873   8.1956   8.8821
    10.1113  10.4948  10.9235  11.5489  11.9138  15.0343  15.5175  15.9574

     occupation numbers 
     1.0000   1.0000   1.0000   1.0000   0.0000   0.0000   0.0000   0.0000
     0.0000   0.0000   0.0000   0.0000   0.0000   0.0000   0.0000   0.0000

          k = 0.7500 1.1066 0.0000 (  4161 PWs)   bands (ev):

   -15.5426 -13.6844 -11.4104  -3.0722  -0.4162   9.1635   9.5881  10.4892
    11.1233  11.2294  11.5832  13.1471  13.4947  13.7017  13.9519  14.7301

     occupation numbers 
     1.0000   1.0000   1.0000   1.0000   0.0000   0.0000   0.0000   0.0000
     0.0000   0.0000   0.0000   0.0000   0.0000   0.0000   0.0000   0.0000

          k = 0.7500 1.2028 0.0000 (  4161 PWs)   bands (ev):

   -15.5426 -13.6844 -11.4103  -3.0722  -0.4162   9.1635   9.5881  10.4891
    11.1233  11.2294  11.5832  13.1471  13.4947  13.7017  13.9519  14.7301

     occupation numbers 
     1.0000   1.0000   1.0000   1.0000   0.0000   0.0000   0.0000   0.0000
     0.0000   0.0000   0.0000   0.0000   0.0000   0.0000   0.0000   0.0000

          k = 0.7500 1.2990 0.0000 (  4156 PWs)   bands (ev):

   -16.9656 -12.2625 -10.7033  -4.4591   1.1054   7.4873   8.1956   8.8821
    10.1113  10.4949  10.9235  11.5489  11.9138  15.0343  15.5175  15.9574

     occupation numbers 
     1.0000   1.0000   1.0000   1.0000   0.0000   0.0000   0.0000   0.0000
     0.0000   0.0000   0.0000   0.0000   0.0000   0.0000   0.0000   0.0000

          k = 0.7500 1.3953 0.0000 (  4172 PWs)   bands (ev):

   -18.1939 -11.2295  -9.2193  -5.8028   2.7213   5.7338   6.6033   7.0724
     8.5170   8.8103   9.7759  11.2794  12.0849  13.9076  14.2927  16.5113

     occupation numbers 
     1.0000   1.0000   1.0000   1.0000   0.0000   0.0000   0.0000   0.0000
     0.0000   0.0000   0.0000   0.0000   0.0000   0.0000   0.0000   0.0000

          k = 0.7500 1.4915 0.0000 (  4175 PWs)   bands (ev):

   -19.1416 -10.2466  -7.6881  -6.8778   4.2134   4.4016   5.3184   5.7095
     6.8727   7.5640   8.4455  11.3600  11.8266  12.6234  15.2010  15.4484

     occupation numbers 
     1.0000   1.0000   1.0000   1.0000   0.0000   0.0000   0.0000   0.0000
     0.0000   0.0000   0.0000   0.0000   0.0000   0.0000   0.0000   0.0000

          k = 0.8333 0.4811 0.0000 (  4194 PWs)   bands (ev):

   -20.5933  -8.5698  -7.0717  -5.9193   2.3951   3.2803   3.6673   5.5661
     6.3590   6.6824   7.6549   9.1330   9.5092  10.6380  12.1046  14.7360

     occupation numbers 
     1.0000   1.0000   1.0000   1.0000   0.0000   0.0000   0.0000   0.0000
     0.0000   0.0000   0.0000   0.0000   0.0000   0.0000   0.0000   0.0000

          k = 0.8333 0.5774 0.0000 (  4169 PWs)   bands (ev):

   -20.7563  -8.7633  -6.4686  -5.8041   2.1718   3.0558   3.4403   5.3447
     6.1792   6.9810   8.1422   8.1773   9.2907  10.4185  11.8803  14.5443

     occupation numbers 
     1.0000   1.0000   1.0000   1.0000   0.0000   0.0000   0.0000   0.0000
     0.0000   0.0000   0.0000   0.0000   0.0000   0.0000   0.0000   0.0000

          k = 0.8333 0.6736 0.0000 (  4194 PWs)   bands (ev):

   -20.5933  -8.5698  -7.0716  -5.9194   2.3951   3.2803   3.6673   5.5661
     6.3589   6.6824   7.6549   9.1331   9.5092  10.6380  12.1046  14.7360

     occupation numbers 
     1.0000   1.0000   1.0000   1.0000   0.0000   0.0000   0.0000   0.0000
     0.0000   0.0000   0.0000   0.0000   0.0000   0.0000   0.0000   0.0000

          k = 0.8333 0.7698 0.0000 (  4180 PWs)   bands (ev):

   -20.1062  -8.1755  -7.9946  -6.8020   3.0655   3.9522   4.3490   6.2098
     6.4142   6.9605   7.2482   9.7096  10.1389  11.3039  13.4478  15.2031

     occupation numbers 
     1.0000   1.0000   1.0000   1.0000   0.0000   0.0000   0.0000   0.0000
     0.0000   0.0000   0.0000   0.0000   0.0000   0.0000   0.0000   0.0000

          k = 0.8333 0.8660 0.0000 (  4170 PWs)   bands (ev):

   -19.3017  -9.5034  -8.1637  -7.0568   4.1810   4.6711   5.0662   5.4850
     7.3263   8.0892   8.4259   9.8381  11.1183  12.3996  15.1353  15.6119

     occupation numbers 
     1.0000   1.0000   1.0000   1.0000   0.0000   0.0000   0.0000   0.0000
     0.0000   0.0000   0.0000   0.0000   0.0000   0.0000   0.0000   0.0000

          k = 0.8333 0.9623 0.0000 (  4172 PWs)   bands (ev):

   -18.1939 -11.2294  -9.2194  -5.8028   2.7214   5.7338   6.6033   7.0724
     8.5170   8.8103   9.7759  11.2794  12.0849  13.9076  14.2927  16.5113

     occupation numbers 
     1.0000   1.0000   1.0000   1.0000   0.0000   0.0000   0.0000   0.0000
     0.0000   0.0000   0.0000   0.0000   0.0000   0.0000   0.0000   0.0000

          k = 0.8333 1.0585 0.0000 (  4170 PWs)   bands (ev):

   -16.8178 -13.1401  -9.7947  -4.3749   0.8072   7.6969   8.3311   8.4852
     9.1173  10.4521  11.7124  12.1586  12.1816  14.2602  14.3754  15.1662

     occupation numbers 
     1.0000   1.0000   1.0000   1.0000   0.0000   0.0000   0.0000   0.0000
     0.0000   0.0000   0.0000   0.0000   0.0000   0.0000   0.0000   0.0000

          k = 0.8333 1.1547 0.0000 (  4178 PWs)   bands (ev):

   -15.5808 -14.5775  -9.9793  -3.4815  -0.2620   8.2268   9.8976   9.9495
    10.1427  11.1576  11.5657  11.6011  12.1909  13.4421  13.8662  14.0799

     occupation numbers 
     1.0000   1.0000   1.0000   1.0000   0.0000   0.0000   0.0000   0.0000
     0.0000   0.0000   0.0000   0.0000   0.0000   0.0000   0.0000   0.0000

          k = 0.8333 1.2509 0.0000 (  4170 PWs)   bands (ev):

   -16.8178 -13.1401  -9.7947  -4.3749   0.8072   7.6969   8.3311   8.4852
     9.1173  10.4521  11.7124  12.1586  12.1816  14.2602  14.3754  15.1662

     occupation numbers 
     1.0000   1.0000   1.0000   1.0000   0.0000   0.0000   0.0000   0.0000
     0.0000   0.0000   0.0000   0.0000   0.0000   0.0000   0.0000   0.0000

          k = 0.8333 1.3472 0.0000 (  4172 PWs)   bands (ev):

   -18.1939 -11.2295  -9.2193  -5.8028   2.7213   5.7338   6.6033   7.0724
     8.5170   8.8103   9.7759  11.2794  12.0849  13.9076  14.2927  16.5113

     occupation numbers 
     1.0000   1.0000   1.0000   1.0000   0.0000   0.0000   0.0000   0.0000
     0.0000   0.0000   0.0000   0.0000   0.0000   0.0000   0.0000   0.0000

          k = 0.8333 1.4434 0.0000 (  4170 PWs)   bands (ev):

   -19.3017  -9.5035  -8.1636  -7.0568   4.1810   4.6711   5.0662   5.4850
     7.3263   8.0893   8.4259   9.8380  11.1183  12.3996  15.1353  15.6119

     occupation numbers 
     1.0000   1.0000   1.0000   1.0000   0.0000   0.0000   0.0000   0.0000
     0.0000   0.0000   0.0000   0.0000   0.0000   0.0000   0.0000   0.0000

          k = 0.8333 1.5396 0.0000 (  4180 PWs)   bands (ev):

   -20.1062  -8.1756  -7.9946  -6.8019   3.0655   3.9523   4.3490   6.2098
     6.4142   6.9605   7.2482   9.7095  10.1389  11.3039  13.4478  15.2031

     occupation numbers 
     1.0000   1.0000   1.0000   1.0000   0.0000   0.0000   0.0000   0.0000
     0.0000   0.0000   0.0000   0.0000   0.0000   0.0000   0.0000   0.0000

          k = 0.9167 0.5292 0.0000 (  4170 PWs)   bands (ev):

   -21.0832  -9.1532  -5.4373  -5.1268   1.7246   2.6057   2.9860   4.8985
     5.7419   6.6711   7.2915   8.8596   9.1668   9.9708  11.1468  14.1606

     occupation numbers 
     1.0000   1.0000   1.0000   1.0000   0.0000   0.0000   0.0000   0.0000
     0.0000   0.0000   0.0000   0.0000   0.0000   0.0000   0.0000   0.0000

          k = 0.9167 0.6255 0.0000 (  4170 PWs)   bands (ev):

   -21.0832  -9.1532  -5.4372  -5.1268   1.7246   2.6057   2.9860   4.8985
     5.7419   6.6710   7.2916   8.8596   9.1668   9.9708  11.1468  14.1606

     occupation numbers 
     1.0000   1.0000   1.0000   1.0000   0.0000   0.0000   0.0000   0.0000
     0.0000   0.0000   0.0000   0.0000   0.0000   0.0000   0.0000   0.0000

          k = 0.9167 0.7217 0.0000 (  4169 PWs)   bands (ev):

   -20.7563  -8.7633  -6.4686  -5.8041   2.1718   3.0558   3.4403   5.3447
     6.1792   6.9810   8.1422   8.1773   9.2907  10.4185  11.8803  14.5443

     occupation numbers 
     1.0000   1.0000   1.0000   1.0000   0.0000   0.0000   0.0000   0.0000
     0.0000   0.0000   0.0000   0.0000   0.0000   0.0000   0.0000   0.0000

          k = 0.9167 0.8179 0.0000 (  4180 PWs)   bands (ev):

   -20.1062  -8.1756  -7.9946  -6.8020   3.0655   3.9523   4.3490   6.2098
     6.4142   6.9605   7.2482   9.7095  10.1389  11.3039  13.4478  15.2031

     occupation numbers 
     1.0000   1.0000   1.0000   1.0000   0.0000   0.0000   0.0000   0.0000
     0.0000   0.0000   0.0000   0.0000   0.0000   0.0000   0.0000   0.0000

          k = 0.9167 0.9141 0.0000 (  4175 PWs)   bands (ev):

   -19.1416 -10.2466  -7.6881  -6.8779   4.2134   4.4016   5.3184   5.7095
     6.8727   7.5640   8.4455  11.3600  11.8266  12.6234  15.2010  15.4484

     occupation numbers 
     1.0000   1.0000   1.0000   1.0000   0.0000   0.0000   0.0000   0.0000
     0.0000   0.0000   0.0000   0.0000   0.0000   0.0000   0.0000   0.0000

          k = 0.9167 1.0104 0.0000 (  4187 PWs)   bands (ev):

   -17.8812 -12.3683  -8.3229  -5.4972   2.0114   6.1530   6.6153   7.0823
     7.5352   9.2983  10.2110  12.6864  13.0469  14.3264  14.4274  15.2061

     occupation numbers 
     1.0000   1.0000   1.0000   1.0000   0.0000   0.0000   0.0000   0.0000
     0.0000   0.0000   0.0000   0.0000   0.0000   0.0000   0.0000   0.0000

          k = 0.9167 1.1066 0.0000 (  4195 PWs)   bands (ev):

   -16.4006 -14.3104  -8.6513  -4.1869   0.2409   6.4217   8.3756   9.2422
     9.7934  10.9055  11.2168  11.8888  12.3882  12.4921  13.5656  14.8192

     occupation numbers 
     1.0000   1.0000   1.0000   1.0000   0.0000   0.0000   0.0000   0.0000
     0.0000   0.0000   0.0000   0.0000   0.0000   0.0000   0.0000   0.0000

          k = 0.9167 1.2028 0.0000 (  4195 PWs)   bands (ev):

   -16.4006 -14.3104  -8.6513  -4.1869   0.2409   6.4217   8.3756   9.2422
     9.7934  10.9055  11.2168  11.8888  12.3882  12.4921  13.5656  14.8192

     occupation numbers 
     1.0000   1.0000   1.0000   1.0000   0.0000   0.0000   0.0000   0.0000
     0.0000   0.0000   0.0000   0.0000   0.0000   0.0000   0.0000   0.0000

          k = 0.9167 1.2990 0.0000 (  4187 PWs)   bands (ev):

   -17.8812 -12.3684  -8.3229  -5.4972   2.0114   6.1530   6.6153   7.0823
     7.5352   9.2983  10.2110  12.6864  13.0469  14.3264  14.4274  15.2061

     occupation numbers 
     1.0000   1.0000   1.0000   1.0000   0.0000   0.0000   0.0000   0.0000
     0.0000   0.0000   0.0000   0.0000   0.0000   0.0000   0.0000   0.0000

          k = 0.9167 1.3953 0.0000 (  4175 PWs)   bands (ev):

   -19.1416 -10.2466  -7.6881  -6.8778   4.2134   4.4016   5.3184   5.7095
     6.8727   7.5640   8.4455  11.3600  11.8266  12.6234  15.2010  15.4484

     occupation numbers 
     1.0000   1.0000   1.0000   1.0000   0.0000   0.0000   0.0000   0.0000
     0.0000   0.0000   0.0000   0.0000   0.0000   0.0000   0.0000   0.0000

          k = 0.9167 1.4915 0.0000 (  4180 PWs)   bands (ev):

   -20.1062  -8.1756  -7.9946  -6.8019   3.0655   3.9523   4.3490   6.2098
     6.4142   6.9605   7.2482   9.7095  10.1389  11.3039  13.4478  15.2031

     occupation numbers 
     1.0000   1.0000   1.0000   1.0000   0.0000   0.0000   0.0000   0.0000
     0.0000   0.0000   0.0000   0.0000   0.0000   0.0000   0.0000   0.0000

          k = 0.9167 1.5877 0.0000 (  4169 PWs)   bands (ev):

   -20.7563  -8.7633  -6.4687  -5.8040   2.1718   3.0558   3.4403   5.3447
     6.1792   6.9811   8.1422   8.1772   9.2907  10.4185  11.8803  14.5443

     occupation numbers 
     1.0000   1.0000   1.0000   1.0000   0.0000   0.0000   0.0000   0.0000
     0.0000   0.0000   0.0000   0.0000   0.0000   0.0000   0.0000   0.0000

     the Fermi energy is    -1.6773 ev
     (compare with:    -1.6771 eV, computed in scf)

     Writing all to output data dir ./work/gr.save/

     init_run     :      0.66s CPU      1.26s WALL (       1 calls)
     electrons    :    128.84s CPU    133.64s WALL (       1 calls)

     Called by init_run:
     wfcinit      :      0.00s CPU      0.01s WALL (       1 calls)
     wfcinit:atom :      0.02s CPU      0.02s WALL (     144 calls)
     wfcinit:wfcr :      2.05s CPU      2.15s WALL (     144 calls)
     potinit      :      0.23s CPU      0.79s WALL (       1 calls)
     hinit0       :      0.37s CPU      0.38s WALL (       1 calls)

     Called by electrons:
     c_bands      :    128.83s CPU    133.64s WALL (       1 calls)
     v_of_rho     :      0.03s CPU      0.04s WALL (       1 calls)
     v_h          :      0.00s CPU      0.00s WALL (       1 calls)
     v_xc         :      0.03s CPU      0.04s WALL (       1 calls)
     newd         :      0.02s CPU      0.02s WALL (       1 calls)

     Called by c_bands:
     init_us_2    :      0.02s CPU      0.02s WALL (     144 calls)
     init_us_2:cp :      0.02s CPU      0.02s WALL (     144 calls)
     cegterg      :    124.88s CPU    129.47s WALL (     567 calls)

     Called by sum_band:

     Called by *egterg:
     cdiaghg      :      3.17s CPU      3.24s WALL (   10065 calls)
     cegterg:over :     14.20s CPU     14.60s WALL (    9921 calls)
     cegterg:upda :      5.17s CPU      5.21s WALL (    9921 calls)
     cegterg:last :     14.77s CPU     14.89s WALL (    6490 calls)
     h_psi        :     80.71s CPU     84.62s WALL (   10632 calls)
     s_psi        :      2.60s CPU      2.71s WALL (   10632 calls)
     g_psi        :      0.42s CPU      0.43s WALL (    9921 calls)

     Called by h_psi:
     h_psi:calbec :      3.92s CPU      4.12s WALL (   10632 calls)
     vloc_psi     :     73.94s CPU     77.52s WALL (   10632 calls)
     add_vuspsi   :      2.60s CPU      2.73s WALL (   10632 calls)

     General routines
     calbec       :      3.90s CPU      4.10s WALL (   10632 calls)
     fft          :      0.27s CPU      0.27s WALL (      13 calls)
     ffts         :      0.19s CPU      0.19s WALL (       1 calls)
     fftw         :     52.73s CPU     55.27s WALL (  216740 calls)
     interpolate  :      0.19s CPU      0.19s WALL (       1 calls)
     davcio       :      0.03s CPU      0.04s WALL (     288 calls)

     Parallel routines

     PWSCF        :   2m 9.72s CPU   2m20.62s WALL


   This run was terminated on:  11:33:55  18Oct2023            

=------------------------------------------------------------------------------=
   JOB DONE.
=------------------------------------------------------------------------------=
