
     Program PWSCF v.7.2 starts on 18Oct2023 at 12:47:58 

     This program is part of the open-source Quantum ESPRESSO suite
     for quantum simulation of materials; please cite
         "P. Giannozzi et al., J. Phys.:Condens. Matter 21 395502 (2009);
         "P. Giannozzi et al., J. Phys.:Condens. Matter 29 465901 (2017);
         "P. Giannozzi et al., J. Chem. Phys. 152 154105 (2020);
          URL http://www.quantum-espresso.org", 
     in publications or presentations arising from this work. More details at
     http://www.quantum-espresso.org/quote

     Parallel version (MPI), running on     4 processors

     MPI processes distributed on     1 nodes
     8958 MiB available memory on the printing compute node when the environment starts

     Waiting for input...
     Reading input from standard input

     Current dimensions of program PWSCF are:
     Max number of different atomic species (ntypx) = 10
     Max number of k-points (npk) =  40000
     Max angular momentum in pseudopotentials (lmaxx) =  4

     Atomic positions and unit cell read from directory:
     ./work/GaAs.save/
     Atomic positions from file used, from input discarded

     file Ga.pbe-dn-kjpaw_psl.0.2.UPF: wavefunction(s)  4S 3D renormalized

     R & G space division:  proc/nbgrp/npool/nimage =       4
     Subspace diagonalization in iterative solution of the eigenvalue problem:
     a serial algorithm will be used


     Parallelization info
     --------------------
     sticks:   dense  smooth     PW     G-vecs:    dense   smooth      PW
     Min         192     192     63                 3589     3589     682
     Max         193     193     64                 3593     3593     686
     Sum         769     769    253                14361    14361    2733

     Using Slab Decomposition



     bravais-lattice index     =            2
     lattice parameter (alat)  =      10.6800  a.u.
     unit-cell volume          =     304.5466 (a.u.)^3
     number of atoms/cell      =            2
     number of atomic types    =            2
     number of electrons       =        18.00
     number of Kohn-Sham states=           17
     kinetic-energy cutoff     =      50.0000  Ry
     charge density cutoff     =     200.0000  Ry
     Exchange-correlation= SLA  PW   PBX  PBC
                           (   1   4   3   4   0   0   0)

     celldm(1)=  10.680000  celldm(2)=   0.000000  celldm(3)=   0.000000
     celldm(4)=   0.000000  celldm(5)=   0.000000  celldm(6)=   0.000000

     crystal axes: (cart. coord. in units of alat)
               a(1) = (  -0.500000   0.000000   0.500000 )  
               a(2) = (   0.000000   0.500000   0.500000 )  
               a(3) = (  -0.500000   0.500000   0.000000 )  

     reciprocal axes: (cart. coord. in units 2 pi/alat)
               b(1) = ( -1.000000 -1.000000  1.000000 )  
               b(2) = (  1.000000  1.000000  1.000000 )  
               b(3) = ( -1.000000  1.000000 -1.000000 )  


     PseudoPot. # 1 for Ga read from file:
     ../pseudo/Ga.pbe-dn-kjpaw_psl.0.2.UPF
     MD5 check sum: 5f391ec2d6164a6cbafefcd1a4b12453
     Pseudo is Projector augmented-wave + core cor, Zval = 13.0
     Generated using "atomic" code by A. Dal Corso  v.5.0.2 svn rev. 9415
     Shape of augmentation charge: BESSEL
     Using radial grid of 1205 points,  6 beta functions with: 
                l(1) =   0
                l(2) =   0
                l(3) =   1
                l(4) =   1
                l(5) =   2
                l(6) =   2
     Q(r) pseudized with 0 coefficients 


     PseudoPot. # 2 for As read from file:
     ../pseudo/As.pbe-n-kjpaw_psl.0.2.UPF
     MD5 check sum: 92d01df2a4d18767ffee083d23ecaa3e
     Pseudo is Projector augmented-wave + core cor, Zval =  5.0
     Generated using "atomic" code by A. Dal Corso  v.5.0.2 svn rev. 9415
     Shape of augmentation charge: PSQ
     Using radial grid of 1209 points,  4 beta functions with: 
                l(1) =   0
                l(2) =   0
                l(3) =   1
                l(4) =   1
     Q(r) pseudized with 0 coefficients 


     atomic species   valence    mass     pseudopotential
        Ga            13.00    68.92600     Ga( 1.00)
        As             5.00    74.92200     As( 1.00)

     24 Sym. Ops. (no inversion) found


                                    s                        frac. trans.

      isym =  1     identity                                     

 cryst.   s( 1) = (     1          0          0      )
                  (     0          1          0      )
                  (     0          0          1      )

 cart.    s( 1) = (  1.0000000  0.0000000  0.0000000 )
                  (  0.0000000  1.0000000  0.0000000 )
                  (  0.0000000  0.0000000  1.0000000 )


      isym =  2     180 deg rotation - cart. axis [0,0,1]        

 cryst.   s( 2) = (     0          1         -1      )
                  (     1          0         -1      )
                  (     0          0         -1      )

 cart.    s( 2) = ( -1.0000000  0.0000000  0.0000000 )
                  (  0.0000000 -1.0000000  0.0000000 )
                  (  0.0000000  0.0000000  1.0000000 )


      isym =  3     180 deg rotation - cart. axis [0,1,0]        

 cryst.   s( 3) = (    -1          0          0      )
                  (    -1          0          1      )
                  (    -1          1          0      )

 cart.    s( 3) = ( -1.0000000  0.0000000  0.0000000 )
                  (  0.0000000  1.0000000  0.0000000 )
                  (  0.0000000  0.0000000 -1.0000000 )


      isym =  4     180 deg rotation - cart. axis [1,0,0]        

 cryst.   s( 4) = (     0         -1          1      )
                  (     0         -1          0      )
                  (     1         -1          0      )

 cart.    s( 4) = (  1.0000000  0.0000000  0.0000000 )
                  (  0.0000000 -1.0000000  0.0000000 )
                  (  0.0000000  0.0000000 -1.0000000 )


      isym =  5     120 deg rotation - cart. axis [-1,-1,-1]     

 cryst.   s( 5) = (    -1          0          1      )
                  (    -1          1          0      )
                  (    -1          0          0      )

 cart.    s( 5) = (  0.0000000  1.0000000  0.0000000 )
                  (  0.0000000  0.0000000  1.0000000 )
                  (  1.0000000  0.0000000  0.0000000 )


      isym =  6     120 deg rotation - cart. axis [-1,1,1]       

 cryst.   s( 6) = (     0          1          0      )
                  (     0          0          1      )
                  (     1          0          0      )

 cart.    s( 6) = (  0.0000000 -1.0000000  0.0000000 )
                  (  0.0000000  0.0000000  1.0000000 )
                  ( -1.0000000  0.0000000  0.0000000 )


      isym =  7     120 deg rotation - cart. axis [1,1,-1]       

 cryst.   s( 7) = (     1          0         -1      )
                  (     0          0         -1      )
                  (     0          1         -1      )

 cart.    s( 7) = (  0.0000000  1.0000000  0.0000000 )
                  (  0.0000000  0.0000000 -1.0000000 )
                  ( -1.0000000  0.0000000  0.0000000 )


      isym =  8     120 deg rotation - cart. axis [1,-1,1]       

 cryst.   s( 8) = (     0         -1          0      )
                  (     1         -1          0      )
                  (     0         -1          1      )

 cart.    s( 8) = (  0.0000000 -1.0000000  0.0000000 )
                  (  0.0000000  0.0000000 -1.0000000 )
                  (  1.0000000  0.0000000  0.0000000 )


      isym =  9     120 deg rotation - cart. axis [1,1,1]        

 cryst.   s( 9) = (     0          0         -1      )
                  (     0          1         -1      )
                  (     1          0         -1      )

 cart.    s( 9) = (  0.0000000  0.0000000  1.0000000 )
                  (  1.0000000  0.0000000  0.0000000 )
                  (  0.0000000  1.0000000  0.0000000 )


      isym = 10     120 deg rotation - cart. axis [-1,1,-1]      

 cryst.   s(10) = (    -1          1          0      )
                  (    -1          0          0      )
                  (    -1          0          1      )

 cart.    s(10) = (  0.0000000  0.0000000  1.0000000 )
                  ( -1.0000000  0.0000000  0.0000000 )
                  (  0.0000000 -1.0000000  0.0000000 )


      isym = 11     120 deg rotation - cart. axis [1,-1,-1]      

 cryst.   s(11) = (     0          0          1      )
                  (     1          0          0      )
                  (     0          1          0      )

 cart.    s(11) = (  0.0000000  0.0000000 -1.0000000 )
                  ( -1.0000000  0.0000000  0.0000000 )
                  (  0.0000000  1.0000000  0.0000000 )


      isym = 12     120 deg rotation - cart. axis [-1,-1,1]      

 cryst.   s(12) = (     1         -1          0      )
                  (     0         -1          1      )
                  (     0         -1          0      )

 cart.    s(12) = (  0.0000000  0.0000000 -1.0000000 )
                  (  1.0000000  0.0000000  0.0000000 )
                  (  0.0000000 -1.0000000  0.0000000 )


      isym = 13     inv. 180 deg rotation - cart. axis [1,1,0]   

 cryst.   s(13) = (     0          1          0      )
                  (     1          0          0      )
                  (     0          0          1      )

 cart.    s(13) = (  0.0000000 -1.0000000  0.0000000 )
                  ( -1.0000000  0.0000000  0.0000000 )
                  (  0.0000000  0.0000000  1.0000000 )


      isym = 14     inv. 180 deg rotation - cart. axis [1,-1,0]  

 cryst.   s(14) = (     1          0         -1      )
                  (     0          1         -1      )
                  (     0          0         -1      )

 cart.    s(14) = (  0.0000000  1.0000000  0.0000000 )
                  (  1.0000000  0.0000000  0.0000000 )
                  (  0.0000000  0.0000000  1.0000000 )


      isym = 15     inv.  90 deg rotation - cart. axis [0,0,-1]  

 cryst.   s(15) = (     0         -1          0      )
                  (     0         -1          1      )
                  (     1         -1          0      )

 cart.    s(15) = (  0.0000000 -1.0000000  0.0000000 )
                  (  1.0000000  0.0000000  0.0000000 )
                  (  0.0000000  0.0000000 -1.0000000 )


      isym = 16     inv.  90 deg rotation - cart. axis [0,0,1]   

 cryst.   s(16) = (    -1          0          1      )
                  (    -1          0          0      )
                  (    -1          1          0      )

 cart.    s(16) = (  0.0000000  1.0000000  0.0000000 )
                  ( -1.0000000  0.0000000  0.0000000 )
                  (  0.0000000  0.0000000 -1.0000000 )


      isym = 17     inv. 180 deg rotation - cart. axis [1,0,1]   

 cryst.   s(17) = (     1          0          0      )
                  (     0          0          1      )
                  (     0          1          0      )

 cart.    s(17) = (  0.0000000  0.0000000 -1.0000000 )
                  (  0.0000000  1.0000000  0.0000000 )
                  ( -1.0000000  0.0000000  0.0000000 )


      isym = 18     inv. 180 deg rotation - cart. axis [-1,0,1]  

 cryst.   s(18) = (    -1          0          0      )
                  (    -1          1          0      )
                  (    -1          0          1      )

 cart.    s(18) = (  0.0000000  0.0000000  1.0000000 )
                  (  0.0000000  1.0000000  0.0000000 )
                  (  1.0000000  0.0000000  0.0000000 )


      isym = 19     inv.  90 deg rotation - cart. axis [0,1,0]   

 cryst.   s(19) = (     0         -1          1      )
                  (     1         -1          0      )
                  (     0         -1          0      )

 cart.    s(19) = (  0.0000000  0.0000000 -1.0000000 )
                  (  0.0000000 -1.0000000  0.0000000 )
                  (  1.0000000  0.0000000  0.0000000 )


      isym = 20     inv.  90 deg rotation - cart. axis [0,-1,0]  

 cryst.   s(20) = (     0          1         -1      )
                  (     0          0         -1      )
                  (     1          0         -1      )

 cart.    s(20) = (  0.0000000  0.0000000  1.0000000 )
                  (  0.0000000 -1.0000000  0.0000000 )
                  ( -1.0000000  0.0000000  0.0000000 )


      isym = 21     inv. 180 deg rotation - cart. axis [0,1,1]   

 cryst.   s(21) = (     1         -1          0      )
                  (     0         -1          0      )
                  (     0         -1          1      )

 cart.    s(21) = (  1.0000000  0.0000000  0.0000000 )
                  (  0.0000000  0.0000000 -1.0000000 )
                  (  0.0000000 -1.0000000  0.0000000 )


      isym = 22     inv. 180 deg rotation - cart. axis [0,1,-1]  

 cryst.   s(22) = (     0          0          1      )
                  (     0          1          0      )
                  (     1          0          0      )

 cart.    s(22) = (  1.0000000  0.0000000  0.0000000 )
                  (  0.0000000  0.0000000  1.0000000 )
                  (  0.0000000  1.0000000  0.0000000 )


      isym = 23     inv.  90 deg rotation - cart. axis [-1,0,0]  

 cryst.   s(23) = (     0          0         -1      )
                  (     1          0         -1      )
                  (     0          1         -1      )

 cart.    s(23) = ( -1.0000000  0.0000000  0.0000000 )
                  (  0.0000000  0.0000000 -1.0000000 )
                  (  0.0000000  1.0000000  0.0000000 )


      isym = 24     inv.  90 deg rotation - cart. axis [1,0,0]   

 cryst.   s(24) = (    -1          1          0      )
                  (    -1          0          1      )
                  (    -1          0          0      )

 cart.    s(24) = ( -1.0000000  0.0000000  0.0000000 )
                  (  0.0000000  0.0000000  1.0000000 )
                  (  0.0000000 -1.0000000  0.0000000 )


     point group T_d (-43m) 
     there are  5 classes
     the character table:

       E     8C3   3C2   6S4   6s_d 
A_1    1.00  1.00  1.00  1.00  1.00
A_2    1.00  1.00  1.00 -1.00 -1.00
E      2.00 -1.00  2.00  0.00  0.00
T_1    3.00  0.00 -1.00  1.00 -1.00
T_2    3.00  0.00 -1.00 -1.00  1.00

     the symmetry operations in each class and the name of the first element:

     E        1
          identity                                               
     8C3      5    7    8    6   12    9   10   11
          120 deg rotation - cart. axis [-1,-1,-1]               
     3C2      2    3    4
          180 deg rotation - cart. axis [0,0,1]                  
     6S4     15   16   20   19   23   24
          inv.  90 deg rotation - cart. axis [0,0,-1]            
     6s_d    13   14   17   18   21   22
          inv. 180 deg rotation - cart. axis [1,1,0]             

   Cartesian axes

     site n.     atom                  positions (alat units)
         1           Ga  tau(   1) = (   0.0000000   0.0000000   0.0000000  )
         2           As  tau(   2) = (  -0.2500000   0.2500000   0.2500000  )

   Crystallographic axes

     site n.     atom                  positions (cryst. coord.)
         1           Ga  tau(   1) = (  0.0000000  0.0000000  0.0000000  )
         2           As  tau(   2) = (  0.2500000  0.2500000  0.2500000  )

     number of k points=  1000  Methfessel-Paxton smearing, width (Ry)=  0.0100
                       cart. coord. in units 2pi/alat
        k(    1) = (   0.0000000   0.0000000   0.0000000), wk =   0.0020000
        k(    2) = (  -0.1000000   0.1000000  -0.1000000), wk =   0.0020000
        k(    3) = (  -0.2000000   0.2000000  -0.2000000), wk =   0.0020000
        k(    4) = (  -0.3000000   0.3000000  -0.3000000), wk =   0.0020000
        k(    5) = (  -0.4000000   0.4000000  -0.4000000), wk =   0.0020000
        k(    6) = (  -0.5000000   0.5000000  -0.5000000), wk =   0.0020000
        k(    7) = (  -0.6000000   0.6000000  -0.6000000), wk =   0.0020000
        k(    8) = (  -0.7000000   0.7000000  -0.7000000), wk =   0.0020000
        k(    9) = (  -0.8000000   0.8000000  -0.8000000), wk =   0.0020000
        k(   10) = (  -0.9000000   0.9000000  -0.9000000), wk =   0.0020000
        k(   11) = (   0.1000000   0.1000000   0.1000000), wk =   0.0020000
        k(   12) = (   0.0000000   0.2000000   0.0000000), wk =   0.0020000
        k(   13) = (  -0.1000000   0.3000000  -0.1000000), wk =   0.0020000
        k(   14) = (  -0.2000000   0.4000000  -0.2000000), wk =   0.0020000
        k(   15) = (  -0.3000000   0.5000000  -0.3000000), wk =   0.0020000
        k(   16) = (  -0.4000000   0.6000000  -0.4000000), wk =   0.0020000
        k(   17) = (  -0.5000000   0.7000000  -0.5000000), wk =   0.0020000
        k(   18) = (  -0.6000000   0.8000000  -0.6000000), wk =   0.0020000
        k(   19) = (  -0.7000000   0.9000000  -0.7000000), wk =   0.0020000
        k(   20) = (  -0.8000000   1.0000000  -0.8000000), wk =   0.0020000
        k(   21) = (   0.2000000   0.2000000   0.2000000), wk =   0.0020000
        k(   22) = (   0.1000000   0.3000000   0.1000000), wk =   0.0020000
        k(   23) = (   0.0000000   0.4000000   0.0000000), wk =   0.0020000
        k(   24) = (  -0.1000000   0.5000000  -0.1000000), wk =   0.0020000
        k(   25) = (  -0.2000000   0.6000000  -0.2000000), wk =   0.0020000
        k(   26) = (  -0.3000000   0.7000000  -0.3000000), wk =   0.0020000
        k(   27) = (  -0.4000000   0.8000000  -0.4000000), wk =   0.0020000
        k(   28) = (  -0.5000000   0.9000000  -0.5000000), wk =   0.0020000
        k(   29) = (  -0.6000000   1.0000000  -0.6000000), wk =   0.0020000
        k(   30) = (  -0.7000000   1.1000000  -0.7000000), wk =   0.0020000
        k(   31) = (   0.3000000   0.3000000   0.3000000), wk =   0.0020000
        k(   32) = (   0.2000000   0.4000000   0.2000000), wk =   0.0020000
        k(   33) = (   0.1000000   0.5000000   0.1000000), wk =   0.0020000
        k(   34) = (   0.0000000   0.6000000   0.0000000), wk =   0.0020000
        k(   35) = (  -0.1000000   0.7000000  -0.1000000), wk =   0.0020000
        k(   36) = (  -0.2000000   0.8000000  -0.2000000), wk =   0.0020000
        k(   37) = (  -0.3000000   0.9000000  -0.3000000), wk =   0.0020000
        k(   38) = (  -0.4000000   1.0000000  -0.4000000), wk =   0.0020000
        k(   39) = (  -0.5000000   1.1000000  -0.5000000), wk =   0.0020000
        k(   40) = (  -0.6000000   1.2000000  -0.6000000), wk =   0.0020000
        k(   41) = (   0.4000000   0.4000000   0.4000000), wk =   0.0020000
        k(   42) = (   0.3000000   0.5000000   0.3000000), wk =   0.0020000
        k(   43) = (   0.2000000   0.6000000   0.2000000), wk =   0.0020000
        k(   44) = (   0.1000000   0.7000000   0.1000000), wk =   0.0020000
        k(   45) = (   0.0000000   0.8000000   0.0000000), wk =   0.0020000
        k(   46) = (  -0.1000000   0.9000000  -0.1000000), wk =   0.0020000
        k(   47) = (  -0.2000000   1.0000000  -0.2000000), wk =   0.0020000
        k(   48) = (  -0.3000000   1.1000000  -0.3000000), wk =   0.0020000
        k(   49) = (  -0.4000000   1.2000000  -0.4000000), wk =   0.0020000
        k(   50) = (  -0.5000000   1.3000000  -0.5000000), wk =   0.0020000
        k(   51) = (   0.5000000   0.5000000   0.5000000), wk =   0.0020000
        k(   52) = (   0.4000000   0.6000000   0.4000000), wk =   0.0020000
        k(   53) = (   0.3000000   0.7000000   0.3000000), wk =   0.0020000
        k(   54) = (   0.2000000   0.8000000   0.2000000), wk =   0.0020000
        k(   55) = (   0.1000000   0.9000000   0.1000000), wk =   0.0020000
        k(   56) = (   0.0000000   1.0000000   0.0000000), wk =   0.0020000
        k(   57) = (  -0.1000000   1.1000000  -0.1000000), wk =   0.0020000
        k(   58) = (  -0.2000000   1.2000000  -0.2000000), wk =   0.0020000
        k(   59) = (  -0.3000000   1.3000000  -0.3000000), wk =   0.0020000
        k(   60) = (  -0.4000000   1.4000000  -0.4000000), wk =   0.0020000
        k(   61) = (   0.6000000   0.6000000   0.6000000), wk =   0.0020000
        k(   62) = (   0.5000000   0.7000000   0.5000000), wk =   0.0020000
        k(   63) = (   0.4000000   0.8000000   0.4000000), wk =   0.0020000
        k(   64) = (   0.3000000   0.9000000   0.3000000), wk =   0.0020000
        k(   65) = (   0.2000000   1.0000000   0.2000000), wk =   0.0020000
        k(   66) = (   0.1000000   1.1000000   0.1000000), wk =   0.0020000
        k(   67) = (   0.0000000   1.2000000   0.0000000), wk =   0.0020000
        k(   68) = (  -0.1000000   1.3000000  -0.1000000), wk =   0.0020000
        k(   69) = (  -0.2000000   1.4000000  -0.2000000), wk =   0.0020000
        k(   70) = (  -0.3000000   1.5000000  -0.3000000), wk =   0.0020000
        k(   71) = (   0.7000000   0.7000000   0.7000000), wk =   0.0020000
        k(   72) = (   0.6000000   0.8000000   0.6000000), wk =   0.0020000
        k(   73) = (   0.5000000   0.9000000   0.5000000), wk =   0.0020000
        k(   74) = (   0.4000000   1.0000000   0.4000000), wk =   0.0020000
        k(   75) = (   0.3000000   1.1000000   0.3000000), wk =   0.0020000
        k(   76) = (   0.2000000   1.2000000   0.2000000), wk =   0.0020000
        k(   77) = (   0.1000000   1.3000000   0.1000000), wk =   0.0020000
        k(   78) = (   0.0000000   1.4000000   0.0000000), wk =   0.0020000
        k(   79) = (  -0.1000000   1.5000000  -0.1000000), wk =   0.0020000
        k(   80) = (  -0.2000000   1.6000000  -0.2000000), wk =   0.0020000
        k(   81) = (   0.8000000   0.8000000   0.8000000), wk =   0.0020000
        k(   82) = (   0.7000000   0.9000000   0.7000000), wk =   0.0020000
        k(   83) = (   0.6000000   1.0000000   0.6000000), wk =   0.0020000
        k(   84) = (   0.5000000   1.1000000   0.5000000), wk =   0.0020000
        k(   85) = (   0.4000000   1.2000000   0.4000000), wk =   0.0020000
        k(   86) = (   0.3000000   1.3000000   0.3000000), wk =   0.0020000
        k(   87) = (   0.2000000   1.4000000   0.2000000), wk =   0.0020000
        k(   88) = (   0.1000000   1.5000000   0.1000000), wk =   0.0020000
        k(   89) = (   0.0000000   1.6000000   0.0000000), wk =   0.0020000
        k(   90) = (  -0.1000000   1.7000000  -0.1000000), wk =   0.0020000
        k(   91) = (   0.9000000   0.9000000   0.9000000), wk =   0.0020000
        k(   92) = (   0.8000000   1.0000000   0.8000000), wk =   0.0020000
        k(   93) = (   0.7000000   1.1000000   0.7000000), wk =   0.0020000
        k(   94) = (   0.6000000   1.2000000   0.6000000), wk =   0.0020000
        k(   95) = (   0.5000000   1.3000000   0.5000000), wk =   0.0020000
        k(   96) = (   0.4000000   1.4000000   0.4000000), wk =   0.0020000
        k(   97) = (   0.3000000   1.5000000   0.3000000), wk =   0.0020000
        k(   98) = (   0.2000000   1.6000000   0.2000000), wk =   0.0020000
        k(   99) = (   0.1000000   1.7000000   0.1000000), wk =   0.0020000
        k(  100) = (   0.0000000   1.8000000   0.0000000), wk =   0.0020000
        k(  101) = (  -0.1000000  -0.1000000   0.1000000), wk =   0.0020000
        k(  102) = (  -0.2000000   0.0000000   0.0000000), wk =   0.0020000
        k(  103) = (  -0.3000000   0.1000000  -0.1000000), wk =   0.0020000
        k(  104) = (  -0.4000000   0.2000000  -0.2000000), wk =   0.0020000
        k(  105) = (  -0.5000000   0.3000000  -0.3000000), wk =   0.0020000
        k(  106) = (  -0.6000000   0.4000000  -0.4000000), wk =   0.0020000
        k(  107) = (  -0.7000000   0.5000000  -0.5000000), wk =   0.0020000
        k(  108) = (  -0.8000000   0.6000000  -0.6000000), wk =   0.0020000
        k(  109) = (  -0.9000000   0.7000000  -0.7000000), wk =   0.0020000
        k(  110) = (  -1.0000000   0.8000000  -0.8000000), wk =   0.0020000
        k(  111) = (   0.0000000   0.0000000   0.2000000), wk =   0.0020000
        k(  112) = (  -0.1000000   0.1000000   0.1000000), wk =   0.0020000
        k(  113) = (  -0.2000000   0.2000000   0.0000000), wk =   0.0020000
        k(  114) = (  -0.3000000   0.3000000  -0.1000000), wk =   0.0020000
        k(  115) = (  -0.4000000   0.4000000  -0.2000000), wk =   0.0020000
        k(  116) = (  -0.5000000   0.5000000  -0.3000000), wk =   0.0020000
        k(  117) = (  -0.6000000   0.6000000  -0.4000000), wk =   0.0020000
        k(  118) = (  -0.7000000   0.7000000  -0.5000000), wk =   0.0020000
        k(  119) = (  -0.8000000   0.8000000  -0.6000000), wk =   0.0020000
        k(  120) = (  -0.9000000   0.9000000  -0.7000000), wk =   0.0020000
        k(  121) = (   0.1000000   0.1000000   0.3000000), wk =   0.0020000
        k(  122) = (   0.0000000   0.2000000   0.2000000), wk =   0.0020000
        k(  123) = (  -0.1000000   0.3000000   0.1000000), wk =   0.0020000
        k(  124) = (  -0.2000000   0.4000000   0.0000000), wk =   0.0020000
        k(  125) = (  -0.3000000   0.5000000  -0.1000000), wk =   0.0020000
        k(  126) = (  -0.4000000   0.6000000  -0.2000000), wk =   0.0020000
        k(  127) = (  -0.5000000   0.7000000  -0.3000000), wk =   0.0020000
        k(  128) = (  -0.6000000   0.8000000  -0.4000000), wk =   0.0020000
        k(  129) = (  -0.7000000   0.9000000  -0.5000000), wk =   0.0020000
        k(  130) = (  -0.8000000   1.0000000  -0.6000000), wk =   0.0020000
        k(  131) = (   0.2000000   0.2000000   0.4000000), wk =   0.0020000
        k(  132) = (   0.1000000   0.3000000   0.3000000), wk =   0.0020000
        k(  133) = (  -0.0000000   0.4000000   0.2000000), wk =   0.0020000
        k(  134) = (  -0.1000000   0.5000000   0.1000000), wk =   0.0020000
        k(  135) = (  -0.2000000   0.6000000   0.0000000), wk =   0.0020000
        k(  136) = (  -0.3000000   0.7000000  -0.1000000), wk =   0.0020000
        k(  137) = (  -0.4000000   0.8000000  -0.2000000), wk =   0.0020000
        k(  138) = (  -0.5000000   0.9000000  -0.3000000), wk =   0.0020000
        k(  139) = (  -0.6000000   1.0000000  -0.4000000), wk =   0.0020000
        k(  140) = (  -0.7000000   1.1000000  -0.5000000), wk =   0.0020000
        k(  141) = (   0.3000000   0.3000000   0.5000000), wk =   0.0020000
        k(  142) = (   0.2000000   0.4000000   0.4000000), wk =   0.0020000
        k(  143) = (   0.1000000   0.5000000   0.3000000), wk =   0.0020000
        k(  144) = (   0.0000000   0.6000000   0.2000000), wk =   0.0020000
        k(  145) = (  -0.1000000   0.7000000   0.1000000), wk =   0.0020000
        k(  146) = (  -0.2000000   0.8000000   0.0000000), wk =   0.0020000
        k(  147) = (  -0.3000000   0.9000000  -0.1000000), wk =   0.0020000
        k(  148) = (  -0.4000000   1.0000000  -0.2000000), wk =   0.0020000
        k(  149) = (  -0.5000000   1.1000000  -0.3000000), wk =   0.0020000
        k(  150) = (  -0.6000000   1.2000000  -0.4000000), wk =   0.0020000
        k(  151) = (   0.4000000   0.4000000   0.6000000), wk =   0.0020000
        k(  152) = (   0.3000000   0.5000000   0.5000000), wk =   0.0020000
        k(  153) = (   0.2000000   0.6000000   0.4000000), wk =   0.0020000
        k(  154) = (   0.1000000   0.7000000   0.3000000), wk =   0.0020000
        k(  155) = (   0.0000000   0.8000000   0.2000000), wk =   0.0020000
        k(  156) = (  -0.1000000   0.9000000   0.1000000), wk =   0.0020000
        k(  157) = (  -0.2000000   1.0000000   0.0000000), wk =   0.0020000
        k(  158) = (  -0.3000000   1.1000000  -0.1000000), wk =   0.0020000
        k(  159) = (  -0.4000000   1.2000000  -0.2000000), wk =   0.0020000
        k(  160) = (  -0.5000000   1.3000000  -0.3000000), wk =   0.0020000
        k(  161) = (   0.5000000   0.5000000   0.7000000), wk =   0.0020000
        k(  162) = (   0.4000000   0.6000000   0.6000000), wk =   0.0020000
        k(  163) = (   0.3000000   0.7000000   0.5000000), wk =   0.0020000
        k(  164) = (   0.2000000   0.8000000   0.4000000), wk =   0.0020000
        k(  165) = (   0.1000000   0.9000000   0.3000000), wk =   0.0020000
        k(  166) = (   0.0000000   1.0000000   0.2000000), wk =   0.0020000
        k(  167) = (  -0.1000000   1.1000000   0.1000000), wk =   0.0020000
        k(  168) = (  -0.2000000   1.2000000   0.0000000), wk =   0.0020000
        k(  169) = (  -0.3000000   1.3000000  -0.1000000), wk =   0.0020000
        k(  170) = (  -0.4000000   1.4000000  -0.2000000), wk =   0.0020000
        k(  171) = (   0.6000000   0.6000000   0.8000000), wk =   0.0020000
        k(  172) = (   0.5000000   0.7000000   0.7000000), wk =   0.0020000
        k(  173) = (   0.4000000   0.8000000   0.6000000), wk =   0.0020000
        k(  174) = (   0.3000000   0.9000000   0.5000000), wk =   0.0020000
        k(  175) = (   0.2000000   1.0000000   0.4000000), wk =   0.0020000
        k(  176) = (   0.1000000   1.1000000   0.3000000), wk =   0.0020000
        k(  177) = (   0.0000000   1.2000000   0.2000000), wk =   0.0020000
        k(  178) = (  -0.1000000   1.3000000   0.1000000), wk =   0.0020000
        k(  179) = (  -0.2000000   1.4000000  -0.0000000), wk =   0.0020000
        k(  180) = (  -0.3000000   1.5000000  -0.1000000), wk =   0.0020000
        k(  181) = (   0.7000000   0.7000000   0.9000000), wk =   0.0020000
        k(  182) = (   0.6000000   0.8000000   0.8000000), wk =   0.0020000
        k(  183) = (   0.5000000   0.9000000   0.7000000), wk =   0.0020000
        k(  184) = (   0.4000000   1.0000000   0.6000000), wk =   0.0020000
        k(  185) = (   0.3000000   1.1000000   0.5000000), wk =   0.0020000
        k(  186) = (   0.2000000   1.2000000   0.4000000), wk =   0.0020000
        k(  187) = (   0.1000000   1.3000000   0.3000000), wk =   0.0020000
        k(  188) = (   0.0000000   1.4000000   0.2000000), wk =   0.0020000
        k(  189) = (  -0.1000000   1.5000000   0.1000000), wk =   0.0020000
        k(  190) = (  -0.2000000   1.6000000   0.0000000), wk =   0.0020000
        k(  191) = (   0.8000000   0.8000000   1.0000000), wk =   0.0020000
        k(  192) = (   0.7000000   0.9000000   0.9000000), wk =   0.0020000
        k(  193) = (   0.6000000   1.0000000   0.8000000), wk =   0.0020000
        k(  194) = (   0.5000000   1.1000000   0.7000000), wk =   0.0020000
        k(  195) = (   0.4000000   1.2000000   0.6000000), wk =   0.0020000
        k(  196) = (   0.3000000   1.3000000   0.5000000), wk =   0.0020000
        k(  197) = (   0.2000000   1.4000000   0.4000000), wk =   0.0020000
        k(  198) = (   0.1000000   1.5000000   0.3000000), wk =   0.0020000
        k(  199) = (   0.0000000   1.6000000   0.2000000), wk =   0.0020000
        k(  200) = (  -0.1000000   1.7000000   0.1000000), wk =   0.0020000
        k(  201) = (  -0.2000000  -0.2000000   0.2000000), wk =   0.0020000
        k(  202) = (  -0.3000000  -0.1000000   0.1000000), wk =   0.0020000
        k(  203) = (  -0.4000000   0.0000000   0.0000000), wk =   0.0020000
        k(  204) = (  -0.5000000   0.1000000  -0.1000000), wk =   0.0020000
        k(  205) = (  -0.6000000   0.2000000  -0.2000000), wk =   0.0020000
        k(  206) = (  -0.7000000   0.3000000  -0.3000000), wk =   0.0020000
        k(  207) = (  -0.8000000   0.4000000  -0.4000000), wk =   0.0020000
        k(  208) = (  -0.9000000   0.5000000  -0.5000000), wk =   0.0020000
        k(  209) = (  -1.0000000   0.6000000  -0.6000000), wk =   0.0020000
        k(  210) = (  -1.1000000   0.7000000  -0.7000000), wk =   0.0020000
        k(  211) = (  -0.1000000  -0.1000000   0.3000000), wk =   0.0020000
        k(  212) = (  -0.2000000   0.0000000   0.2000000), wk =   0.0020000
        k(  213) = (  -0.3000000   0.1000000   0.1000000), wk =   0.0020000
        k(  214) = (  -0.4000000   0.2000000   0.0000000), wk =   0.0020000
        k(  215) = (  -0.5000000   0.3000000  -0.1000000), wk =   0.0020000
        k(  216) = (  -0.6000000   0.4000000  -0.2000000), wk =   0.0020000
        k(  217) = (  -0.7000000   0.5000000  -0.3000000), wk =   0.0020000
        k(  218) = (  -0.8000000   0.6000000  -0.4000000), wk =   0.0020000
        k(  219) = (  -0.9000000   0.7000000  -0.5000000), wk =   0.0020000
        k(  220) = (  -1.0000000   0.8000000  -0.6000000), wk =   0.0020000
        k(  221) = (   0.0000000   0.0000000   0.4000000), wk =   0.0020000
        k(  222) = (  -0.1000000   0.1000000   0.3000000), wk =   0.0020000
        k(  223) = (  -0.2000000   0.2000000   0.2000000), wk =   0.0020000
        k(  224) = (  -0.3000000   0.3000000   0.1000000), wk =   0.0020000
        k(  225) = (  -0.4000000   0.4000000   0.0000000), wk =   0.0020000
        k(  226) = (  -0.5000000   0.5000000  -0.1000000), wk =   0.0020000
        k(  227) = (  -0.6000000   0.6000000  -0.2000000), wk =   0.0020000
        k(  228) = (  -0.7000000   0.7000000  -0.3000000), wk =   0.0020000
        k(  229) = (  -0.8000000   0.8000000  -0.4000000), wk =   0.0020000
        k(  230) = (  -0.9000000   0.9000000  -0.5000000), wk =   0.0020000
        k(  231) = (   0.1000000   0.1000000   0.5000000), wk =   0.0020000
        k(  232) = (  -0.0000000   0.2000000   0.4000000), wk =   0.0020000
        k(  233) = (  -0.1000000   0.3000000   0.3000000), wk =   0.0020000
        k(  234) = (  -0.2000000   0.4000000   0.2000000), wk =   0.0020000
        k(  235) = (  -0.3000000   0.5000000   0.1000000), wk =   0.0020000
        k(  236) = (  -0.4000000   0.6000000   0.0000000), wk =   0.0020000
        k(  237) = (  -0.5000000   0.7000000  -0.1000000), wk =   0.0020000
        k(  238) = (  -0.6000000   0.8000000  -0.2000000), wk =   0.0020000
        k(  239) = (  -0.7000000   0.9000000  -0.3000000), wk =   0.0020000
        k(  240) = (  -0.8000000   1.0000000  -0.4000000), wk =   0.0020000
        k(  241) = (   0.2000000   0.2000000   0.6000000), wk =   0.0020000
        k(  242) = (   0.1000000   0.3000000   0.5000000), wk =   0.0020000
        k(  243) = (   0.0000000   0.4000000   0.4000000), wk =   0.0020000
        k(  244) = (  -0.1000000   0.5000000   0.3000000), wk =   0.0020000
        k(  245) = (  -0.2000000   0.6000000   0.2000000), wk =   0.0020000
        k(  246) = (  -0.3000000   0.7000000   0.1000000), wk =   0.0020000
        k(  247) = (  -0.4000000   0.8000000   0.0000000), wk =   0.0020000
        k(  248) = (  -0.5000000   0.9000000  -0.1000000), wk =   0.0020000
        k(  249) = (  -0.6000000   1.0000000  -0.2000000), wk =   0.0020000
        k(  250) = (  -0.7000000   1.1000000  -0.3000000), wk =   0.0020000
        k(  251) = (   0.3000000   0.3000000   0.7000000), wk =   0.0020000
        k(  252) = (   0.2000000   0.4000000   0.6000000), wk =   0.0020000
        k(  253) = (   0.1000000   0.5000000   0.5000000), wk =   0.0020000
        k(  254) = (   0.0000000   0.6000000   0.4000000), wk =   0.0020000
        k(  255) = (  -0.1000000   0.7000000   0.3000000), wk =   0.0020000
        k(  256) = (  -0.2000000   0.8000000   0.2000000), wk =   0.0020000
        k(  257) = (  -0.3000000   0.9000000   0.1000000), wk =   0.0020000
        k(  258) = (  -0.4000000   1.0000000   0.0000000), wk =   0.0020000
        k(  259) = (  -0.5000000   1.1000000  -0.1000000), wk =   0.0020000
        k(  260) = (  -0.6000000   1.2000000  -0.2000000), wk =   0.0020000
        k(  261) = (   0.4000000   0.4000000   0.8000000), wk =   0.0020000
        k(  262) = (   0.3000000   0.5000000   0.7000000), wk =   0.0020000
        k(  263) = (   0.2000000   0.6000000   0.6000000), wk =   0.0020000
        k(  264) = (   0.1000000   0.7000000   0.5000000), wk =   0.0020000
        k(  265) = (  -0.0000000   0.8000000   0.4000000), wk =   0.0020000
        k(  266) = (  -0.1000000   0.9000000   0.3000000), wk =   0.0020000
        k(  267) = (  -0.2000000   1.0000000   0.2000000), wk =   0.0020000
        k(  268) = (  -0.3000000   1.1000000   0.1000000), wk =   0.0020000
        k(  269) = (  -0.4000000   1.2000000   0.0000000), wk =   0.0020000
        k(  270) = (  -0.5000000   1.3000000  -0.1000000), wk =   0.0020000
        k(  271) = (   0.5000000   0.5000000   0.9000000), wk =   0.0020000
        k(  272) = (   0.4000000   0.6000000   0.8000000), wk =   0.0020000
        k(  273) = (   0.3000000   0.7000000   0.7000000), wk =   0.0020000
        k(  274) = (   0.2000000   0.8000000   0.6000000), wk =   0.0020000
        k(  275) = (   0.1000000   0.9000000   0.5000000), wk =   0.0020000
        k(  276) = (  -0.0000000   1.0000000   0.4000000), wk =   0.0020000
        k(  277) = (  -0.1000000   1.1000000   0.3000000), wk =   0.0020000
        k(  278) = (  -0.2000000   1.2000000   0.2000000), wk =   0.0020000
        k(  279) = (  -0.3000000   1.3000000   0.1000000), wk =   0.0020000
        k(  280) = (  -0.4000000   1.4000000  -0.0000000), wk =   0.0020000
        k(  281) = (   0.6000000   0.6000000   1.0000000), wk =   0.0020000
        k(  282) = (   0.5000000   0.7000000   0.9000000), wk =   0.0020000
        k(  283) = (   0.4000000   0.8000000   0.8000000), wk =   0.0020000
        k(  284) = (   0.3000000   0.9000000   0.7000000), wk =   0.0020000
        k(  285) = (   0.2000000   1.0000000   0.6000000), wk =   0.0020000
        k(  286) = (   0.1000000   1.1000000   0.5000000), wk =   0.0020000
        k(  287) = (   0.0000000   1.2000000   0.4000000), wk =   0.0020000
        k(  288) = (  -0.1000000   1.3000000   0.3000000), wk =   0.0020000
        k(  289) = (  -0.2000000   1.4000000   0.2000000), wk =   0.0020000
        k(  290) = (  -0.3000000   1.5000000   0.1000000), wk =   0.0020000
        k(  291) = (   0.7000000   0.7000000   1.1000000), wk =   0.0020000
        k(  292) = (   0.6000000   0.8000000   1.0000000), wk =   0.0020000
        k(  293) = (   0.5000000   0.9000000   0.9000000), wk =   0.0020000
        k(  294) = (   0.4000000   1.0000000   0.8000000), wk =   0.0020000
        k(  295) = (   0.3000000   1.1000000   0.7000000), wk =   0.0020000
        k(  296) = (   0.2000000   1.2000000   0.6000000), wk =   0.0020000
        k(  297) = (   0.1000000   1.3000000   0.5000000), wk =   0.0020000
        k(  298) = (   0.0000000   1.4000000   0.4000000), wk =   0.0020000
        k(  299) = (  -0.1000000   1.5000000   0.3000000), wk =   0.0020000
        k(  300) = (  -0.2000000   1.6000000   0.2000000), wk =   0.0020000
        k(  301) = (  -0.3000000  -0.3000000   0.3000000), wk =   0.0020000
        k(  302) = (  -0.4000000  -0.2000000   0.2000000), wk =   0.0020000
        k(  303) = (  -0.5000000  -0.1000000   0.1000000), wk =   0.0020000
        k(  304) = (  -0.6000000   0.0000000   0.0000000), wk =   0.0020000
        k(  305) = (  -0.7000000   0.1000000  -0.1000000), wk =   0.0020000
        k(  306) = (  -0.8000000   0.2000000  -0.2000000), wk =   0.0020000
        k(  307) = (  -0.9000000   0.3000000  -0.3000000), wk =   0.0020000
        k(  308) = (  -1.0000000   0.4000000  -0.4000000), wk =   0.0020000
        k(  309) = (  -1.1000000   0.5000000  -0.5000000), wk =   0.0020000
        k(  310) = (  -1.2000000   0.6000000  -0.6000000), wk =   0.0020000
        k(  311) = (  -0.2000000  -0.2000000   0.4000000), wk =   0.0020000
        k(  312) = (  -0.3000000  -0.1000000   0.3000000), wk =   0.0020000
        k(  313) = (  -0.4000000   0.0000000   0.2000000), wk =   0.0020000
        k(  314) = (  -0.5000000   0.1000000   0.1000000), wk =   0.0020000
        k(  315) = (  -0.6000000   0.2000000   0.0000000), wk =   0.0020000
        k(  316) = (  -0.7000000   0.3000000  -0.1000000), wk =   0.0020000
        k(  317) = (  -0.8000000   0.4000000  -0.2000000), wk =   0.0020000
        k(  318) = (  -0.9000000   0.5000000  -0.3000000), wk =   0.0020000
        k(  319) = (  -1.0000000   0.6000000  -0.4000000), wk =   0.0020000
        k(  320) = (  -1.1000000   0.7000000  -0.5000000), wk =   0.0020000
        k(  321) = (  -0.1000000  -0.1000000   0.5000000), wk =   0.0020000
        k(  322) = (  -0.2000000   0.0000000   0.4000000), wk =   0.0020000
        k(  323) = (  -0.3000000   0.1000000   0.3000000), wk =   0.0020000
        k(  324) = (  -0.4000000   0.2000000   0.2000000), wk =   0.0020000
        k(  325) = (  -0.5000000   0.3000000   0.1000000), wk =   0.0020000
        k(  326) = (  -0.6000000   0.4000000   0.0000000), wk =   0.0020000
        k(  327) = (  -0.7000000   0.5000000  -0.1000000), wk =   0.0020000
        k(  328) = (  -0.8000000   0.6000000  -0.2000000), wk =   0.0020000
        k(  329) = (  -0.9000000   0.7000000  -0.3000000), wk =   0.0020000
        k(  330) = (  -1.0000000   0.8000000  -0.4000000), wk =   0.0020000
        k(  331) = (   0.0000000   0.0000000   0.6000000), wk =   0.0020000
        k(  332) = (  -0.1000000   0.1000000   0.5000000), wk =   0.0020000
        k(  333) = (  -0.2000000   0.2000000   0.4000000), wk =   0.0020000
        k(  334) = (  -0.3000000   0.3000000   0.3000000), wk =   0.0020000
        k(  335) = (  -0.4000000   0.4000000   0.2000000), wk =   0.0020000
        k(  336) = (  -0.5000000   0.5000000   0.1000000), wk =   0.0020000
        k(  337) = (  -0.6000000   0.6000000   0.0000000), wk =   0.0020000
        k(  338) = (  -0.7000000   0.7000000  -0.1000000), wk =   0.0020000
        k(  339) = (  -0.8000000   0.8000000  -0.2000000), wk =   0.0020000
        k(  340) = (  -0.9000000   0.9000000  -0.3000000), wk =   0.0020000
        k(  341) = (   0.1000000   0.1000000   0.7000000), wk =   0.0020000
        k(  342) = (   0.0000000   0.2000000   0.6000000), wk =   0.0020000
        k(  343) = (  -0.1000000   0.3000000   0.5000000), wk =   0.0020000
        k(  344) = (  -0.2000000   0.4000000   0.4000000), wk =   0.0020000
        k(  345) = (  -0.3000000   0.5000000   0.3000000), wk =   0.0020000
        k(  346) = (  -0.4000000   0.6000000   0.2000000), wk =   0.0020000
        k(  347) = (  -0.5000000   0.7000000   0.1000000), wk =   0.0020000
        k(  348) = (  -0.6000000   0.8000000   0.0000000), wk =   0.0020000
        k(  349) = (  -0.7000000   0.9000000  -0.1000000), wk =   0.0020000
        k(  350) = (  -0.8000000   1.0000000  -0.2000000), wk =   0.0020000
        k(  351) = (   0.2000000   0.2000000   0.8000000), wk =   0.0020000
        k(  352) = (   0.1000000   0.3000000   0.7000000), wk =   0.0020000
        k(  353) = (   0.0000000   0.4000000   0.6000000), wk =   0.0020000
        k(  354) = (  -0.1000000   0.5000000   0.5000000), wk =   0.0020000
        k(  355) = (  -0.2000000   0.6000000   0.4000000), wk =   0.0020000
        k(  356) = (  -0.3000000   0.7000000   0.3000000), wk =   0.0020000
        k(  357) = (  -0.4000000   0.8000000   0.2000000), wk =   0.0020000
        k(  358) = (  -0.5000000   0.9000000   0.1000000), wk =   0.0020000
        k(  359) = (  -0.6000000   1.0000000   0.0000000), wk =   0.0020000
        k(  360) = (  -0.7000000   1.1000000  -0.1000000), wk =   0.0020000
        k(  361) = (   0.3000000   0.3000000   0.9000000), wk =   0.0020000
        k(  362) = (   0.2000000   0.4000000   0.8000000), wk =   0.0020000
        k(  363) = (   0.1000000   0.5000000   0.7000000), wk =   0.0020000
        k(  364) = (   0.0000000   0.6000000   0.6000000), wk =   0.0020000
        k(  365) = (  -0.1000000   0.7000000   0.5000000), wk =   0.0020000
        k(  366) = (  -0.2000000   0.8000000   0.4000000), wk =   0.0020000
        k(  367) = (  -0.3000000   0.9000000   0.3000000), wk =   0.0020000
        k(  368) = (  -0.4000000   1.0000000   0.2000000), wk =   0.0020000
        k(  369) = (  -0.5000000   1.1000000   0.1000000), wk =   0.0020000
        k(  370) = (  -0.6000000   1.2000000  -0.0000000), wk =   0.0020000
        k(  371) = (   0.4000000   0.4000000   1.0000000), wk =   0.0020000
        k(  372) = (   0.3000000   0.5000000   0.9000000), wk =   0.0020000
        k(  373) = (   0.2000000   0.6000000   0.8000000), wk =   0.0020000
        k(  374) = (   0.1000000   0.7000000   0.7000000), wk =   0.0020000
        k(  375) = (  -0.0000000   0.8000000   0.6000000), wk =   0.0020000
        k(  376) = (  -0.1000000   0.9000000   0.5000000), wk =   0.0020000
        k(  377) = (  -0.2000000   1.0000000   0.4000000), wk =   0.0020000
        k(  378) = (  -0.3000000   1.1000000   0.3000000), wk =   0.0020000
        k(  379) = (  -0.4000000   1.2000000   0.2000000), wk =   0.0020000
        k(  380) = (  -0.5000000   1.3000000   0.1000000), wk =   0.0020000
        k(  381) = (   0.5000000   0.5000000   1.1000000), wk =   0.0020000
        k(  382) = (   0.4000000   0.6000000   1.0000000), wk =   0.0020000
        k(  383) = (   0.3000000   0.7000000   0.9000000), wk =   0.0020000
        k(  384) = (   0.2000000   0.8000000   0.8000000), wk =   0.0020000
        k(  385) = (   0.1000000   0.9000000   0.7000000), wk =   0.0020000
        k(  386) = (   0.0000000   1.0000000   0.6000000), wk =   0.0020000
        k(  387) = (  -0.1000000   1.1000000   0.5000000), wk =   0.0020000
        k(  388) = (  -0.2000000   1.2000000   0.4000000), wk =   0.0020000
        k(  389) = (  -0.3000000   1.3000000   0.3000000), wk =   0.0020000
        k(  390) = (  -0.4000000   1.4000000   0.2000000), wk =   0.0020000
        k(  391) = (   0.6000000   0.6000000   1.2000000), wk =   0.0020000
        k(  392) = (   0.5000000   0.7000000   1.1000000), wk =   0.0020000
        k(  393) = (   0.4000000   0.8000000   1.0000000), wk =   0.0020000
        k(  394) = (   0.3000000   0.9000000   0.9000000), wk =   0.0020000
        k(  395) = (   0.2000000   1.0000000   0.8000000), wk =   0.0020000
        k(  396) = (   0.1000000   1.1000000   0.7000000), wk =   0.0020000
        k(  397) = (   0.0000000   1.2000000   0.6000000), wk =   0.0020000
        k(  398) = (  -0.1000000   1.3000000   0.5000000), wk =   0.0020000
        k(  399) = (  -0.2000000   1.4000000   0.4000000), wk =   0.0020000
        k(  400) = (  -0.3000000   1.5000000   0.3000000), wk =   0.0020000
        k(  401) = (  -0.4000000  -0.4000000   0.4000000), wk =   0.0020000
        k(  402) = (  -0.5000000  -0.3000000   0.3000000), wk =   0.0020000
        k(  403) = (  -0.6000000  -0.2000000   0.2000000), wk =   0.0020000
        k(  404) = (  -0.7000000  -0.1000000   0.1000000), wk =   0.0020000
        k(  405) = (  -0.8000000   0.0000000   0.0000000), wk =   0.0020000
        k(  406) = (  -0.9000000   0.1000000  -0.1000000), wk =   0.0020000
        k(  407) = (  -1.0000000   0.2000000  -0.2000000), wk =   0.0020000
        k(  408) = (  -1.1000000   0.3000000  -0.3000000), wk =   0.0020000
        k(  409) = (  -1.2000000   0.4000000  -0.4000000), wk =   0.0020000
        k(  410) = (  -1.3000000   0.5000000  -0.5000000), wk =   0.0020000
        k(  411) = (  -0.3000000  -0.3000000   0.5000000), wk =   0.0020000
        k(  412) = (  -0.4000000  -0.2000000   0.4000000), wk =   0.0020000
        k(  413) = (  -0.5000000  -0.1000000   0.3000000), wk =   0.0020000
        k(  414) = (  -0.6000000  -0.0000000   0.2000000), wk =   0.0020000
        k(  415) = (  -0.7000000   0.1000000   0.1000000), wk =   0.0020000
        k(  416) = (  -0.8000000   0.2000000   0.0000000), wk =   0.0020000
        k(  417) = (  -0.9000000   0.3000000  -0.1000000), wk =   0.0020000
        k(  418) = (  -1.0000000   0.4000000  -0.2000000), wk =   0.0020000
        k(  419) = (  -1.1000000   0.5000000  -0.3000000), wk =   0.0020000
        k(  420) = (  -1.2000000   0.6000000  -0.4000000), wk =   0.0020000
        k(  421) = (  -0.2000000  -0.2000000   0.6000000), wk =   0.0020000
        k(  422) = (  -0.3000000  -0.1000000   0.5000000), wk =   0.0020000
        k(  423) = (  -0.4000000   0.0000000   0.4000000), wk =   0.0020000
        k(  424) = (  -0.5000000   0.1000000   0.3000000), wk =   0.0020000
        k(  425) = (  -0.6000000   0.2000000   0.2000000), wk =   0.0020000
        k(  426) = (  -0.7000000   0.3000000   0.1000000), wk =   0.0020000
        k(  427) = (  -0.8000000   0.4000000   0.0000000), wk =   0.0020000
        k(  428) = (  -0.9000000   0.5000000  -0.1000000), wk =   0.0020000
        k(  429) = (  -1.0000000   0.6000000  -0.2000000), wk =   0.0020000
        k(  430) = (  -1.1000000   0.7000000  -0.3000000), wk =   0.0020000
        k(  431) = (  -0.1000000  -0.1000000   0.7000000), wk =   0.0020000
        k(  432) = (  -0.2000000  -0.0000000   0.6000000), wk =   0.0020000
        k(  433) = (  -0.3000000   0.1000000   0.5000000), wk =   0.0020000
        k(  434) = (  -0.4000000   0.2000000   0.4000000), wk =   0.0020000
        k(  435) = (  -0.5000000   0.3000000   0.3000000), wk =   0.0020000
        k(  436) = (  -0.6000000   0.4000000   0.2000000), wk =   0.0020000
        k(  437) = (  -0.7000000   0.5000000   0.1000000), wk =   0.0020000
        k(  438) = (  -0.8000000   0.6000000   0.0000000), wk =   0.0020000
        k(  439) = (  -0.9000000   0.7000000  -0.1000000), wk =   0.0020000
        k(  440) = (  -1.0000000   0.8000000  -0.2000000), wk =   0.0020000
        k(  441) = (   0.0000000   0.0000000   0.8000000), wk =   0.0020000
        k(  442) = (  -0.1000000   0.1000000   0.7000000), wk =   0.0020000
        k(  443) = (  -0.2000000   0.2000000   0.6000000), wk =   0.0020000
        k(  444) = (  -0.3000000   0.3000000   0.5000000), wk =   0.0020000
        k(  445) = (  -0.4000000   0.4000000   0.4000000), wk =   0.0020000
        k(  446) = (  -0.5000000   0.5000000   0.3000000), wk =   0.0020000
        k(  447) = (  -0.6000000   0.6000000   0.2000000), wk =   0.0020000
        k(  448) = (  -0.7000000   0.7000000   0.1000000), wk =   0.0020000
        k(  449) = (  -0.8000000   0.8000000   0.0000000), wk =   0.0020000
        k(  450) = (  -0.9000000   0.9000000  -0.1000000), wk =   0.0020000
        k(  451) = (   0.1000000   0.1000000   0.9000000), wk =   0.0020000
        k(  452) = (  -0.0000000   0.2000000   0.8000000), wk =   0.0020000
        k(  453) = (  -0.1000000   0.3000000   0.7000000), wk =   0.0020000
        k(  454) = (  -0.2000000   0.4000000   0.6000000), wk =   0.0020000
        k(  455) = (  -0.3000000   0.5000000   0.5000000), wk =   0.0020000
        k(  456) = (  -0.4000000   0.6000000   0.4000000), wk =   0.0020000
        k(  457) = (  -0.5000000   0.7000000   0.3000000), wk =   0.0020000
        k(  458) = (  -0.6000000   0.8000000   0.2000000), wk =   0.0020000
        k(  459) = (  -0.7000000   0.9000000   0.1000000), wk =   0.0020000
        k(  460) = (  -0.8000000   1.0000000   0.0000000), wk =   0.0020000
        k(  461) = (   0.2000000   0.2000000   1.0000000), wk =   0.0020000
        k(  462) = (   0.1000000   0.3000000   0.9000000), wk =   0.0020000
        k(  463) = (  -0.0000000   0.4000000   0.8000000), wk =   0.0020000
        k(  464) = (  -0.1000000   0.5000000   0.7000000), wk =   0.0020000
        k(  465) = (  -0.2000000   0.6000000   0.6000000), wk =   0.0020000
        k(  466) = (  -0.3000000   0.7000000   0.5000000), wk =   0.0020000
        k(  467) = (  -0.4000000   0.8000000   0.4000000), wk =   0.0020000
        k(  468) = (  -0.5000000   0.9000000   0.3000000), wk =   0.0020000
        k(  469) = (  -0.6000000   1.0000000   0.2000000), wk =   0.0020000
        k(  470) = (  -0.7000000   1.1000000   0.1000000), wk =   0.0020000
        k(  471) = (   0.3000000   0.3000000   1.1000000), wk =   0.0020000
        k(  472) = (   0.2000000   0.4000000   1.0000000), wk =   0.0020000
        k(  473) = (   0.1000000   0.5000000   0.9000000), wk =   0.0020000
        k(  474) = (  -0.0000000   0.6000000   0.8000000), wk =   0.0020000
        k(  475) = (  -0.1000000   0.7000000   0.7000000), wk =   0.0020000
        k(  476) = (  -0.2000000   0.8000000   0.6000000), wk =   0.0020000
        k(  477) = (  -0.3000000   0.9000000   0.5000000), wk =   0.0020000
        k(  478) = (  -0.4000000   1.0000000   0.4000000), wk =   0.0020000
        k(  479) = (  -0.5000000   1.1000000   0.3000000), wk =   0.0020000
        k(  480) = (  -0.6000000   1.2000000   0.2000000), wk =   0.0020000
        k(  481) = (   0.4000000   0.4000000   1.2000000), wk =   0.0020000
        k(  482) = (   0.3000000   0.5000000   1.1000000), wk =   0.0020000
        k(  483) = (   0.2000000   0.6000000   1.0000000), wk =   0.0020000
        k(  484) = (   0.1000000   0.7000000   0.9000000), wk =   0.0020000
        k(  485) = (   0.0000000   0.8000000   0.8000000), wk =   0.0020000
        k(  486) = (  -0.1000000   0.9000000   0.7000000), wk =   0.0020000
        k(  487) = (  -0.2000000   1.0000000   0.6000000), wk =   0.0020000
        k(  488) = (  -0.3000000   1.1000000   0.5000000), wk =   0.0020000
        k(  489) = (  -0.4000000   1.2000000   0.4000000), wk =   0.0020000
        k(  490) = (  -0.5000000   1.3000000   0.3000000), wk =   0.0020000
        k(  491) = (   0.5000000   0.5000000   1.3000000), wk =   0.0020000
        k(  492) = (   0.4000000   0.6000000   1.2000000), wk =   0.0020000
        k(  493) = (   0.3000000   0.7000000   1.1000000), wk =   0.0020000
        k(  494) = (   0.2000000   0.8000000   1.0000000), wk =   0.0020000
        k(  495) = (   0.1000000   0.9000000   0.9000000), wk =   0.0020000
        k(  496) = (   0.0000000   1.0000000   0.8000000), wk =   0.0020000
        k(  497) = (  -0.1000000   1.1000000   0.7000000), wk =   0.0020000
        k(  498) = (  -0.2000000   1.2000000   0.6000000), wk =   0.0020000
        k(  499) = (  -0.3000000   1.3000000   0.5000000), wk =   0.0020000
        k(  500) = (  -0.4000000   1.4000000   0.4000000), wk =   0.0020000
        k(  501) = (  -0.5000000  -0.5000000   0.5000000), wk =   0.0020000
        k(  502) = (  -0.6000000  -0.4000000   0.4000000), wk =   0.0020000
        k(  503) = (  -0.7000000  -0.3000000   0.3000000), wk =   0.0020000
        k(  504) = (  -0.8000000  -0.2000000   0.2000000), wk =   0.0020000
        k(  505) = (  -0.9000000  -0.1000000   0.1000000), wk =   0.0020000
        k(  506) = (  -1.0000000   0.0000000   0.0000000), wk =   0.0020000
        k(  507) = (  -1.1000000   0.1000000  -0.1000000), wk =   0.0020000
        k(  508) = (  -1.2000000   0.2000000  -0.2000000), wk =   0.0020000
        k(  509) = (  -1.3000000   0.3000000  -0.3000000), wk =   0.0020000
        k(  510) = (  -1.4000000   0.4000000  -0.4000000), wk =   0.0020000
        k(  511) = (  -0.4000000  -0.4000000   0.6000000), wk =   0.0020000
        k(  512) = (  -0.5000000  -0.3000000   0.5000000), wk =   0.0020000
        k(  513) = (  -0.6000000  -0.2000000   0.4000000), wk =   0.0020000
        k(  514) = (  -0.7000000  -0.1000000   0.3000000), wk =   0.0020000
        k(  515) = (  -0.8000000   0.0000000   0.2000000), wk =   0.0020000
        k(  516) = (  -0.9000000   0.1000000   0.1000000), wk =   0.0020000
        k(  517) = (  -1.0000000   0.2000000   0.0000000), wk =   0.0020000
        k(  518) = (  -1.1000000   0.3000000  -0.1000000), wk =   0.0020000
        k(  519) = (  -1.2000000   0.4000000  -0.2000000), wk =   0.0020000
        k(  520) = (  -1.3000000   0.5000000  -0.3000000), wk =   0.0020000
        k(  521) = (  -0.3000000  -0.3000000   0.7000000), wk =   0.0020000
        k(  522) = (  -0.4000000  -0.2000000   0.6000000), wk =   0.0020000
        k(  523) = (  -0.5000000  -0.1000000   0.5000000), wk =   0.0020000
        k(  524) = (  -0.6000000   0.0000000   0.4000000), wk =   0.0020000
        k(  525) = (  -0.7000000   0.1000000   0.3000000), wk =   0.0020000
        k(  526) = (  -0.8000000   0.2000000   0.2000000), wk =   0.0020000
        k(  527) = (  -0.9000000   0.3000000   0.1000000), wk =   0.0020000
        k(  528) = (  -1.0000000   0.4000000   0.0000000), wk =   0.0020000
        k(  529) = (  -1.1000000   0.5000000  -0.1000000), wk =   0.0020000
        k(  530) = (  -1.2000000   0.6000000  -0.2000000), wk =   0.0020000
        k(  531) = (  -0.2000000  -0.2000000   0.8000000), wk =   0.0020000
        k(  532) = (  -0.3000000  -0.1000000   0.7000000), wk =   0.0020000
        k(  533) = (  -0.4000000   0.0000000   0.6000000), wk =   0.0020000
        k(  534) = (  -0.5000000   0.1000000   0.5000000), wk =   0.0020000
        k(  535) = (  -0.6000000   0.2000000   0.4000000), wk =   0.0020000
        k(  536) = (  -0.7000000   0.3000000   0.3000000), wk =   0.0020000
        k(  537) = (  -0.8000000   0.4000000   0.2000000), wk =   0.0020000
        k(  538) = (  -0.9000000   0.5000000   0.1000000), wk =   0.0020000
        k(  539) = (  -1.0000000   0.6000000   0.0000000), wk =   0.0020000
        k(  540) = (  -1.1000000   0.7000000  -0.1000000), wk =   0.0020000
        k(  541) = (  -0.1000000  -0.1000000   0.9000000), wk =   0.0020000
        k(  542) = (  -0.2000000   0.0000000   0.8000000), wk =   0.0020000
        k(  543) = (  -0.3000000   0.1000000   0.7000000), wk =   0.0020000
        k(  544) = (  -0.4000000   0.2000000   0.6000000), wk =   0.0020000
        k(  545) = (  -0.5000000   0.3000000   0.5000000), wk =   0.0020000
        k(  546) = (  -0.6000000   0.4000000   0.4000000), wk =   0.0020000
        k(  547) = (  -0.7000000   0.5000000   0.3000000), wk =   0.0020000
        k(  548) = (  -0.8000000   0.6000000   0.2000000), wk =   0.0020000
        k(  549) = (  -0.9000000   0.7000000   0.1000000), wk =   0.0020000
        k(  550) = (  -1.0000000   0.8000000   0.0000000), wk =   0.0020000
        k(  551) = (   0.0000000   0.0000000   1.0000000), wk =   0.0020000
        k(  552) = (  -0.1000000   0.1000000   0.9000000), wk =   0.0020000
        k(  553) = (  -0.2000000   0.2000000   0.8000000), wk =   0.0020000
        k(  554) = (  -0.3000000   0.3000000   0.7000000), wk =   0.0020000
        k(  555) = (  -0.4000000   0.4000000   0.6000000), wk =   0.0020000
        k(  556) = (  -0.5000000   0.5000000   0.5000000), wk =   0.0020000
        k(  557) = (  -0.6000000   0.6000000   0.4000000), wk =   0.0020000
        k(  558) = (  -0.7000000   0.7000000   0.3000000), wk =   0.0020000
        k(  559) = (  -0.8000000   0.8000000   0.2000000), wk =   0.0020000
        k(  560) = (  -0.9000000   0.9000000   0.1000000), wk =   0.0020000
        k(  561) = (   0.1000000   0.1000000   1.1000000), wk =   0.0020000
        k(  562) = (  -0.0000000   0.2000000   1.0000000), wk =   0.0020000
        k(  563) = (  -0.1000000   0.3000000   0.9000000), wk =   0.0020000
        k(  564) = (  -0.2000000   0.4000000   0.8000000), wk =   0.0020000
        k(  565) = (  -0.3000000   0.5000000   0.7000000), wk =   0.0020000
        k(  566) = (  -0.4000000   0.6000000   0.6000000), wk =   0.0020000
        k(  567) = (  -0.5000000   0.7000000   0.5000000), wk =   0.0020000
        k(  568) = (  -0.6000000   0.8000000   0.4000000), wk =   0.0020000
        k(  569) = (  -0.7000000   0.9000000   0.3000000), wk =   0.0020000
        k(  570) = (  -0.8000000   1.0000000   0.2000000), wk =   0.0020000
        k(  571) = (   0.2000000   0.2000000   1.2000000), wk =   0.0020000
        k(  572) = (   0.1000000   0.3000000   1.1000000), wk =   0.0020000
        k(  573) = (  -0.0000000   0.4000000   1.0000000), wk =   0.0020000
        k(  574) = (  -0.1000000   0.5000000   0.9000000), wk =   0.0020000
        k(  575) = (  -0.2000000   0.6000000   0.8000000), wk =   0.0020000
        k(  576) = (  -0.3000000   0.7000000   0.7000000), wk =   0.0020000
        k(  577) = (  -0.4000000   0.8000000   0.6000000), wk =   0.0020000
        k(  578) = (  -0.5000000   0.9000000   0.5000000), wk =   0.0020000
        k(  579) = (  -0.6000000   1.0000000   0.4000000), wk =   0.0020000
        k(  580) = (  -0.7000000   1.1000000   0.3000000), wk =   0.0020000
        k(  581) = (   0.3000000   0.3000000   1.3000000), wk =   0.0020000
        k(  582) = (   0.2000000   0.4000000   1.2000000), wk =   0.0020000
        k(  583) = (   0.1000000   0.5000000   1.1000000), wk =   0.0020000
        k(  584) = (   0.0000000   0.6000000   1.0000000), wk =   0.0020000
        k(  585) = (  -0.1000000   0.7000000   0.9000000), wk =   0.0020000
        k(  586) = (  -0.2000000   0.8000000   0.8000000), wk =   0.0020000
        k(  587) = (  -0.3000000   0.9000000   0.7000000), wk =   0.0020000
        k(  588) = (  -0.4000000   1.0000000   0.6000000), wk =   0.0020000
        k(  589) = (  -0.5000000   1.1000000   0.5000000), wk =   0.0020000
        k(  590) = (  -0.6000000   1.2000000   0.4000000), wk =   0.0020000
        k(  591) = (   0.4000000   0.4000000   1.4000000), wk =   0.0020000
        k(  592) = (   0.3000000   0.5000000   1.3000000), wk =   0.0020000
        k(  593) = (   0.2000000   0.6000000   1.2000000), wk =   0.0020000
        k(  594) = (   0.1000000   0.7000000   1.1000000), wk =   0.0020000
        k(  595) = (   0.0000000   0.8000000   1.0000000), wk =   0.0020000
        k(  596) = (  -0.1000000   0.9000000   0.9000000), wk =   0.0020000
        k(  597) = (  -0.2000000   1.0000000   0.8000000), wk =   0.0020000
        k(  598) = (  -0.3000000   1.1000000   0.7000000), wk =   0.0020000
        k(  599) = (  -0.4000000   1.2000000   0.6000000), wk =   0.0020000
        k(  600) = (  -0.5000000   1.3000000   0.5000000), wk =   0.0020000
        k(  601) = (  -0.6000000  -0.6000000   0.6000000), wk =   0.0020000
        k(  602) = (  -0.7000000  -0.5000000   0.5000000), wk =   0.0020000
        k(  603) = (  -0.8000000  -0.4000000   0.4000000), wk =   0.0020000
        k(  604) = (  -0.9000000  -0.3000000   0.3000000), wk =   0.0020000
        k(  605) = (  -1.0000000  -0.2000000   0.2000000), wk =   0.0020000
        k(  606) = (  -1.1000000  -0.1000000   0.1000000), wk =   0.0020000
        k(  607) = (  -1.2000000   0.0000000   0.0000000), wk =   0.0020000
        k(  608) = (  -1.3000000   0.1000000  -0.1000000), wk =   0.0020000
        k(  609) = (  -1.4000000   0.2000000  -0.2000000), wk =   0.0020000
        k(  610) = (  -1.5000000   0.3000000  -0.3000000), wk =   0.0020000
        k(  611) = (  -0.5000000  -0.5000000   0.7000000), wk =   0.0020000
        k(  612) = (  -0.6000000  -0.4000000   0.6000000), wk =   0.0020000
        k(  613) = (  -0.7000000  -0.3000000   0.5000000), wk =   0.0020000
        k(  614) = (  -0.8000000  -0.2000000   0.4000000), wk =   0.0020000
        k(  615) = (  -0.9000000  -0.1000000   0.3000000), wk =   0.0020000
        k(  616) = (  -1.0000000   0.0000000   0.2000000), wk =   0.0020000
        k(  617) = (  -1.1000000   0.1000000   0.1000000), wk =   0.0020000
        k(  618) = (  -1.2000000   0.2000000   0.0000000), wk =   0.0020000
        k(  619) = (  -1.3000000   0.3000000  -0.1000000), wk =   0.0020000
        k(  620) = (  -1.4000000   0.4000000  -0.2000000), wk =   0.0020000
        k(  621) = (  -0.4000000  -0.4000000   0.8000000), wk =   0.0020000
        k(  622) = (  -0.5000000  -0.3000000   0.7000000), wk =   0.0020000
        k(  623) = (  -0.6000000  -0.2000000   0.6000000), wk =   0.0020000
        k(  624) = (  -0.7000000  -0.1000000   0.5000000), wk =   0.0020000
        k(  625) = (  -0.8000000   0.0000000   0.4000000), wk =   0.0020000
        k(  626) = (  -0.9000000   0.1000000   0.3000000), wk =   0.0020000
        k(  627) = (  -1.0000000   0.2000000   0.2000000), wk =   0.0020000
        k(  628) = (  -1.1000000   0.3000000   0.1000000), wk =   0.0020000
        k(  629) = (  -1.2000000   0.4000000   0.0000000), wk =   0.0020000
        k(  630) = (  -1.3000000   0.5000000  -0.1000000), wk =   0.0020000
        k(  631) = (  -0.3000000  -0.3000000   0.9000000), wk =   0.0020000
        k(  632) = (  -0.4000000  -0.2000000   0.8000000), wk =   0.0020000
        k(  633) = (  -0.5000000  -0.1000000   0.7000000), wk =   0.0020000
        k(  634) = (  -0.6000000   0.0000000   0.6000000), wk =   0.0020000
        k(  635) = (  -0.7000000   0.1000000   0.5000000), wk =   0.0020000
        k(  636) = (  -0.8000000   0.2000000   0.4000000), wk =   0.0020000
        k(  637) = (  -0.9000000   0.3000000   0.3000000), wk =   0.0020000
        k(  638) = (  -1.0000000   0.4000000   0.2000000), wk =   0.0020000
        k(  639) = (  -1.1000000   0.5000000   0.1000000), wk =   0.0020000
        k(  640) = (  -1.2000000   0.6000000  -0.0000000), wk =   0.0020000
        k(  641) = (  -0.2000000  -0.2000000   1.0000000), wk =   0.0020000
        k(  642) = (  -0.3000000  -0.1000000   0.9000000), wk =   0.0020000
        k(  643) = (  -0.4000000   0.0000000   0.8000000), wk =   0.0020000
        k(  644) = (  -0.5000000   0.1000000   0.7000000), wk =   0.0020000
        k(  645) = (  -0.6000000   0.2000000   0.6000000), wk =   0.0020000
        k(  646) = (  -0.7000000   0.3000000   0.5000000), wk =   0.0020000
        k(  647) = (  -0.8000000   0.4000000   0.4000000), wk =   0.0020000
        k(  648) = (  -0.9000000   0.5000000   0.3000000), wk =   0.0020000
        k(  649) = (  -1.0000000   0.6000000   0.2000000), wk =   0.0020000
        k(  650) = (  -1.1000000   0.7000000   0.1000000), wk =   0.0020000
        k(  651) = (  -0.1000000  -0.1000000   1.1000000), wk =   0.0020000
        k(  652) = (  -0.2000000   0.0000000   1.0000000), wk =   0.0020000
        k(  653) = (  -0.3000000   0.1000000   0.9000000), wk =   0.0020000
        k(  654) = (  -0.4000000   0.2000000   0.8000000), wk =   0.0020000
        k(  655) = (  -0.5000000   0.3000000   0.7000000), wk =   0.0020000
        k(  656) = (  -0.6000000   0.4000000   0.6000000), wk =   0.0020000
        k(  657) = (  -0.7000000   0.5000000   0.5000000), wk =   0.0020000
        k(  658) = (  -0.8000000   0.6000000   0.4000000), wk =   0.0020000
        k(  659) = (  -0.9000000   0.7000000   0.3000000), wk =   0.0020000
        k(  660) = (  -1.0000000   0.8000000   0.2000000), wk =   0.0020000
        k(  661) = (   0.0000000   0.0000000   1.2000000), wk =   0.0020000
        k(  662) = (  -0.1000000   0.1000000   1.1000000), wk =   0.0020000
        k(  663) = (  -0.2000000   0.2000000   1.0000000), wk =   0.0020000
        k(  664) = (  -0.3000000   0.3000000   0.9000000), wk =   0.0020000
        k(  665) = (  -0.4000000   0.4000000   0.8000000), wk =   0.0020000
        k(  666) = (  -0.5000000   0.5000000   0.7000000), wk =   0.0020000
        k(  667) = (  -0.6000000   0.6000000   0.6000000), wk =   0.0020000
        k(  668) = (  -0.7000000   0.7000000   0.5000000), wk =   0.0020000
        k(  669) = (  -0.8000000   0.8000000   0.4000000), wk =   0.0020000
        k(  670) = (  -0.9000000   0.9000000   0.3000000), wk =   0.0020000
        k(  671) = (   0.1000000   0.1000000   1.3000000), wk =   0.0020000
        k(  672) = (  -0.0000000   0.2000000   1.2000000), wk =   0.0020000
        k(  673) = (  -0.1000000   0.3000000   1.1000000), wk =   0.0020000
        k(  674) = (  -0.2000000   0.4000000   1.0000000), wk =   0.0020000
        k(  675) = (  -0.3000000   0.5000000   0.9000000), wk =   0.0020000
        k(  676) = (  -0.4000000   0.6000000   0.8000000), wk =   0.0020000
        k(  677) = (  -0.5000000   0.7000000   0.7000000), wk =   0.0020000
        k(  678) = (  -0.6000000   0.8000000   0.6000000), wk =   0.0020000
        k(  679) = (  -0.7000000   0.9000000   0.5000000), wk =   0.0020000
        k(  680) = (  -0.8000000   1.0000000   0.4000000), wk =   0.0020000
        k(  681) = (   0.2000000   0.2000000   1.4000000), wk =   0.0020000
        k(  682) = (   0.1000000   0.3000000   1.3000000), wk =   0.0020000
        k(  683) = (   0.0000000   0.4000000   1.2000000), wk =   0.0020000
        k(  684) = (  -0.1000000   0.5000000   1.1000000), wk =   0.0020000
        k(  685) = (  -0.2000000   0.6000000   1.0000000), wk =   0.0020000
        k(  686) = (  -0.3000000   0.7000000   0.9000000), wk =   0.0020000
        k(  687) = (  -0.4000000   0.8000000   0.8000000), wk =   0.0020000
        k(  688) = (  -0.5000000   0.9000000   0.7000000), wk =   0.0020000
        k(  689) = (  -0.6000000   1.0000000   0.6000000), wk =   0.0020000
        k(  690) = (  -0.7000000   1.1000000   0.5000000), wk =   0.0020000
        k(  691) = (   0.3000000   0.3000000   1.5000000), wk =   0.0020000
        k(  692) = (   0.2000000   0.4000000   1.4000000), wk =   0.0020000
        k(  693) = (   0.1000000   0.5000000   1.3000000), wk =   0.0020000
        k(  694) = (   0.0000000   0.6000000   1.2000000), wk =   0.0020000
        k(  695) = (  -0.1000000   0.7000000   1.1000000), wk =   0.0020000
        k(  696) = (  -0.2000000   0.8000000   1.0000000), wk =   0.0020000
        k(  697) = (  -0.3000000   0.9000000   0.9000000), wk =   0.0020000
        k(  698) = (  -0.4000000   1.0000000   0.8000000), wk =   0.0020000
        k(  699) = (  -0.5000000   1.1000000   0.7000000), wk =   0.0020000
        k(  700) = (  -0.6000000   1.2000000   0.6000000), wk =   0.0020000
        k(  701) = (  -0.7000000  -0.7000000   0.7000000), wk =   0.0020000
        k(  702) = (  -0.8000000  -0.6000000   0.6000000), wk =   0.0020000
        k(  703) = (  -0.9000000  -0.5000000   0.5000000), wk =   0.0020000
        k(  704) = (  -1.0000000  -0.4000000   0.4000000), wk =   0.0020000
        k(  705) = (  -1.1000000  -0.3000000   0.3000000), wk =   0.0020000
        k(  706) = (  -1.2000000  -0.2000000   0.2000000), wk =   0.0020000
        k(  707) = (  -1.3000000  -0.1000000   0.1000000), wk =   0.0020000
        k(  708) = (  -1.4000000   0.0000000   0.0000000), wk =   0.0020000
        k(  709) = (  -1.5000000   0.1000000  -0.1000000), wk =   0.0020000
        k(  710) = (  -1.6000000   0.2000000  -0.2000000), wk =   0.0020000
        k(  711) = (  -0.6000000  -0.6000000   0.8000000), wk =   0.0020000
        k(  712) = (  -0.7000000  -0.5000000   0.7000000), wk =   0.0020000
        k(  713) = (  -0.8000000  -0.4000000   0.6000000), wk =   0.0020000
        k(  714) = (  -0.9000000  -0.3000000   0.5000000), wk =   0.0020000
        k(  715) = (  -1.0000000  -0.2000000   0.4000000), wk =   0.0020000
        k(  716) = (  -1.1000000  -0.1000000   0.3000000), wk =   0.0020000
        k(  717) = (  -1.2000000   0.0000000   0.2000000), wk =   0.0020000
        k(  718) = (  -1.3000000   0.1000000   0.1000000), wk =   0.0020000
        k(  719) = (  -1.4000000   0.2000000  -0.0000000), wk =   0.0020000
        k(  720) = (  -1.5000000   0.3000000  -0.1000000), wk =   0.0020000
        k(  721) = (  -0.5000000  -0.5000000   0.9000000), wk =   0.0020000
        k(  722) = (  -0.6000000  -0.4000000   0.8000000), wk =   0.0020000
        k(  723) = (  -0.7000000  -0.3000000   0.7000000), wk =   0.0020000
        k(  724) = (  -0.8000000  -0.2000000   0.6000000), wk =   0.0020000
        k(  725) = (  -0.9000000  -0.1000000   0.5000000), wk =   0.0020000
        k(  726) = (  -1.0000000   0.0000000   0.4000000), wk =   0.0020000
        k(  727) = (  -1.1000000   0.1000000   0.3000000), wk =   0.0020000
        k(  728) = (  -1.2000000   0.2000000   0.2000000), wk =   0.0020000
        k(  729) = (  -1.3000000   0.3000000   0.1000000), wk =   0.0020000
        k(  730) = (  -1.4000000   0.4000000  -0.0000000), wk =   0.0020000
        k(  731) = (  -0.4000000  -0.4000000   1.0000000), wk =   0.0020000
        k(  732) = (  -0.5000000  -0.3000000   0.9000000), wk =   0.0020000
        k(  733) = (  -0.6000000  -0.2000000   0.8000000), wk =   0.0020000
        k(  734) = (  -0.7000000  -0.1000000   0.7000000), wk =   0.0020000
        k(  735) = (  -0.8000000   0.0000000   0.6000000), wk =   0.0020000
        k(  736) = (  -0.9000000   0.1000000   0.5000000), wk =   0.0020000
        k(  737) = (  -1.0000000   0.2000000   0.4000000), wk =   0.0020000
        k(  738) = (  -1.1000000   0.3000000   0.3000000), wk =   0.0020000
        k(  739) = (  -1.2000000   0.4000000   0.2000000), wk =   0.0020000
        k(  740) = (  -1.3000000   0.5000000   0.1000000), wk =   0.0020000
        k(  741) = (  -0.3000000  -0.3000000   1.1000000), wk =   0.0020000
        k(  742) = (  -0.4000000  -0.2000000   1.0000000), wk =   0.0020000
        k(  743) = (  -0.5000000  -0.1000000   0.9000000), wk =   0.0020000
        k(  744) = (  -0.6000000   0.0000000   0.8000000), wk =   0.0020000
        k(  745) = (  -0.7000000   0.1000000   0.7000000), wk =   0.0020000
        k(  746) = (  -0.8000000   0.2000000   0.6000000), wk =   0.0020000
        k(  747) = (  -0.9000000   0.3000000   0.5000000), wk =   0.0020000
        k(  748) = (  -1.0000000   0.4000000   0.4000000), wk =   0.0020000
        k(  749) = (  -1.1000000   0.5000000   0.3000000), wk =   0.0020000
        k(  750) = (  -1.2000000   0.6000000   0.2000000), wk =   0.0020000
        k(  751) = (  -0.2000000  -0.2000000   1.2000000), wk =   0.0020000
        k(  752) = (  -0.3000000  -0.1000000   1.1000000), wk =   0.0020000
        k(  753) = (  -0.4000000   0.0000000   1.0000000), wk =   0.0020000
        k(  754) = (  -0.5000000   0.1000000   0.9000000), wk =   0.0020000
        k(  755) = (  -0.6000000   0.2000000   0.8000000), wk =   0.0020000
        k(  756) = (  -0.7000000   0.3000000   0.7000000), wk =   0.0020000
        k(  757) = (  -0.8000000   0.4000000   0.6000000), wk =   0.0020000
        k(  758) = (  -0.9000000   0.5000000   0.5000000), wk =   0.0020000
        k(  759) = (  -1.0000000   0.6000000   0.4000000), wk =   0.0020000
        k(  760) = (  -1.1000000   0.7000000   0.3000000), wk =   0.0020000
        k(  761) = (  -0.1000000  -0.1000000   1.3000000), wk =   0.0020000
        k(  762) = (  -0.2000000   0.0000000   1.2000000), wk =   0.0020000
        k(  763) = (  -0.3000000   0.1000000   1.1000000), wk =   0.0020000
        k(  764) = (  -0.4000000   0.2000000   1.0000000), wk =   0.0020000
        k(  765) = (  -0.5000000   0.3000000   0.9000000), wk =   0.0020000
        k(  766) = (  -0.6000000   0.4000000   0.8000000), wk =   0.0020000
        k(  767) = (  -0.7000000   0.5000000   0.7000000), wk =   0.0020000
        k(  768) = (  -0.8000000   0.6000000   0.6000000), wk =   0.0020000
        k(  769) = (  -0.9000000   0.7000000   0.5000000), wk =   0.0020000
        k(  770) = (  -1.0000000   0.8000000   0.4000000), wk =   0.0020000
        k(  771) = (   0.0000000   0.0000000   1.4000000), wk =   0.0020000
        k(  772) = (  -0.1000000   0.1000000   1.3000000), wk =   0.0020000
        k(  773) = (  -0.2000000   0.2000000   1.2000000), wk =   0.0020000
        k(  774) = (  -0.3000000   0.3000000   1.1000000), wk =   0.0020000
        k(  775) = (  -0.4000000   0.4000000   1.0000000), wk =   0.0020000
        k(  776) = (  -0.5000000   0.5000000   0.9000000), wk =   0.0020000
        k(  777) = (  -0.6000000   0.6000000   0.8000000), wk =   0.0020000
        k(  778) = (  -0.7000000   0.7000000   0.7000000), wk =   0.0020000
        k(  779) = (  -0.8000000   0.8000000   0.6000000), wk =   0.0020000
        k(  780) = (  -0.9000000   0.9000000   0.5000000), wk =   0.0020000
        k(  781) = (   0.1000000   0.1000000   1.5000000), wk =   0.0020000
        k(  782) = (   0.0000000   0.2000000   1.4000000), wk =   0.0020000
        k(  783) = (  -0.1000000   0.3000000   1.3000000), wk =   0.0020000
        k(  784) = (  -0.2000000   0.4000000   1.2000000), wk =   0.0020000
        k(  785) = (  -0.3000000   0.5000000   1.1000000), wk =   0.0020000
        k(  786) = (  -0.4000000   0.6000000   1.0000000), wk =   0.0020000
        k(  787) = (  -0.5000000   0.7000000   0.9000000), wk =   0.0020000
        k(  788) = (  -0.6000000   0.8000000   0.8000000), wk =   0.0020000
        k(  789) = (  -0.7000000   0.9000000   0.7000000), wk =   0.0020000
        k(  790) = (  -0.8000000   1.0000000   0.6000000), wk =   0.0020000
        k(  791) = (   0.2000000   0.2000000   1.6000000), wk =   0.0020000
        k(  792) = (   0.1000000   0.3000000   1.5000000), wk =   0.0020000
        k(  793) = (   0.0000000   0.4000000   1.4000000), wk =   0.0020000
        k(  794) = (  -0.1000000   0.5000000   1.3000000), wk =   0.0020000
        k(  795) = (  -0.2000000   0.6000000   1.2000000), wk =   0.0020000
        k(  796) = (  -0.3000000   0.7000000   1.1000000), wk =   0.0020000
        k(  797) = (  -0.4000000   0.8000000   1.0000000), wk =   0.0020000
        k(  798) = (  -0.5000000   0.9000000   0.9000000), wk =   0.0020000
        k(  799) = (  -0.6000000   1.0000000   0.8000000), wk =   0.0020000
        k(  800) = (  -0.7000000   1.1000000   0.7000000), wk =   0.0020000
        k(  801) = (  -0.8000000  -0.8000000   0.8000000), wk =   0.0020000
        k(  802) = (  -0.9000000  -0.7000000   0.7000000), wk =   0.0020000
        k(  803) = (  -1.0000000  -0.6000000   0.6000000), wk =   0.0020000
        k(  804) = (  -1.1000000  -0.5000000   0.5000000), wk =   0.0020000
        k(  805) = (  -1.2000000  -0.4000000   0.4000000), wk =   0.0020000
        k(  806) = (  -1.3000000  -0.3000000   0.3000000), wk =   0.0020000
        k(  807) = (  -1.4000000  -0.2000000   0.2000000), wk =   0.0020000
        k(  808) = (  -1.5000000  -0.1000000   0.1000000), wk =   0.0020000
        k(  809) = (  -1.6000000   0.0000000   0.0000000), wk =   0.0020000
        k(  810) = (  -1.7000000   0.1000000  -0.1000000), wk =   0.0020000
        k(  811) = (  -0.7000000  -0.7000000   0.9000000), wk =   0.0020000
        k(  812) = (  -0.8000000  -0.6000000   0.8000000), wk =   0.0020000
        k(  813) = (  -0.9000000  -0.5000000   0.7000000), wk =   0.0020000
        k(  814) = (  -1.0000000  -0.4000000   0.6000000), wk =   0.0020000
        k(  815) = (  -1.1000000  -0.3000000   0.5000000), wk =   0.0020000
        k(  816) = (  -1.2000000  -0.2000000   0.4000000), wk =   0.0020000
        k(  817) = (  -1.3000000  -0.1000000   0.3000000), wk =   0.0020000
        k(  818) = (  -1.4000000  -0.0000000   0.2000000), wk =   0.0020000
        k(  819) = (  -1.5000000   0.1000000   0.1000000), wk =   0.0020000
        k(  820) = (  -1.6000000   0.2000000   0.0000000), wk =   0.0020000
        k(  821) = (  -0.6000000  -0.6000000   1.0000000), wk =   0.0020000
        k(  822) = (  -0.7000000  -0.5000000   0.9000000), wk =   0.0020000
        k(  823) = (  -0.8000000  -0.4000000   0.8000000), wk =   0.0020000
        k(  824) = (  -0.9000000  -0.3000000   0.7000000), wk =   0.0020000
        k(  825) = (  -1.0000000  -0.2000000   0.6000000), wk =   0.0020000
        k(  826) = (  -1.1000000  -0.1000000   0.5000000), wk =   0.0020000
        k(  827) = (  -1.2000000  -0.0000000   0.4000000), wk =   0.0020000
        k(  828) = (  -1.3000000   0.1000000   0.3000000), wk =   0.0020000
        k(  829) = (  -1.4000000   0.2000000   0.2000000), wk =   0.0020000
        k(  830) = (  -1.5000000   0.3000000   0.1000000), wk =   0.0020000
        k(  831) = (  -0.5000000  -0.5000000   1.1000000), wk =   0.0020000
        k(  832) = (  -0.6000000  -0.4000000   1.0000000), wk =   0.0020000
        k(  833) = (  -0.7000000  -0.3000000   0.9000000), wk =   0.0020000
        k(  834) = (  -0.8000000  -0.2000000   0.8000000), wk =   0.0020000
        k(  835) = (  -0.9000000  -0.1000000   0.7000000), wk =   0.0020000
        k(  836) = (  -1.0000000   0.0000000   0.6000000), wk =   0.0020000
        k(  837) = (  -1.1000000   0.1000000   0.5000000), wk =   0.0020000
        k(  838) = (  -1.2000000   0.2000000   0.4000000), wk =   0.0020000
        k(  839) = (  -1.3000000   0.3000000   0.3000000), wk =   0.0020000
        k(  840) = (  -1.4000000   0.4000000   0.2000000), wk =   0.0020000
        k(  841) = (  -0.4000000  -0.4000000   1.2000000), wk =   0.0020000
        k(  842) = (  -0.5000000  -0.3000000   1.1000000), wk =   0.0020000
        k(  843) = (  -0.6000000  -0.2000000   1.0000000), wk =   0.0020000
        k(  844) = (  -0.7000000  -0.1000000   0.9000000), wk =   0.0020000
        k(  845) = (  -0.8000000   0.0000000   0.8000000), wk =   0.0020000
        k(  846) = (  -0.9000000   0.1000000   0.7000000), wk =   0.0020000
        k(  847) = (  -1.0000000   0.2000000   0.6000000), wk =   0.0020000
        k(  848) = (  -1.1000000   0.3000000   0.5000000), wk =   0.0020000
        k(  849) = (  -1.2000000   0.4000000   0.4000000), wk =   0.0020000
[...]
    20.8393

     occupation numbers 
     1.0000   1.0000   1.0000   1.0000   1.0000   1.0000   1.0000   1.0000
     1.0000  -0.0000  -0.0000  -0.0000  -0.0000  -0.0000  -0.0000  -0.0000
    -0.0000

          k =-1.3000 0.5000 0.5000 (  1816 PWs)   bands (ev):

    -7.2586  -7.1605  -7.1598  -7.0997  -7.0990  -3.3937   1.2458   5.6043
     6.4543   9.4505  12.1586  12.5359  15.6118  17.3589  17.8838  19.3455
    20.5487

     occupation numbers 
     1.0000   1.0000   1.0000   1.0000   1.0000   1.0000   1.0000   1.0000
     1.0000  -0.0000  -0.0000  -0.0000  -0.0000  -0.0000  -0.0000  -0.0000
    -0.0000

          k =-0.3000-0.3000 1.5000 (  1826 PWs)   bands (ev):

    -7.2517  -7.1625  -7.1600  -7.1039  -7.0970  -3.6946   1.8384   5.9802
     6.2697   9.5750  11.9136  12.9041  14.5628  16.9228  17.9359  18.8580
    21.1054

     occupation numbers 
     1.0000   1.0000   1.0000   1.0000   1.0000   1.0000   1.0000   1.0000
     1.0000  -0.0000  -0.0000  -0.0000  -0.0000  -0.0000  -0.0000  -0.0000
    -0.0000

          k =-0.4000-0.2000 1.4000 (  1814 PWs)   bands (ev):

    -7.2604  -7.1587  -7.1541  -7.1057  -7.0972  -3.3705   1.5349   4.8921
     6.0787  10.3107  11.8403  13.4107  14.4749  17.3212  18.3465  19.5561
    20.8393

     occupation numbers 
     1.0000   1.0000   1.0000   1.0000   1.0000   1.0000   1.0000   1.0000
     1.0000  -0.0000  -0.0000  -0.0000  -0.0000  -0.0000  -0.0000  -0.0000
    -0.0000

          k =-0.5000-0.1000 1.3000 (  1821 PWs)   bands (ev):

    -7.2687  -7.1550  -7.1460  -7.1077  -7.0988  -2.9839   1.3012   3.9836
     5.6135  10.7204  12.3734  13.7257  15.3413  16.0991  18.0449  20.6625
    22.0071

     occupation numbers 
     1.0000   1.0000   1.0000   1.0000   1.0000   1.0000   1.0000   1.0000
     1.0000  -0.0000  -0.0000  -0.0000  -0.0000  -0.0000  -0.0000  -0.0000
    -0.0000

          k =-0.6000-0.0000 1.2000 (  1821 PWs)   bands (ev):

    -7.2761  -7.1503  -7.1395  -7.1122  -7.0971  -2.6863   1.0656   3.7179
     5.1661  10.4066  13.0656  14.0334  14.7088  16.8285  18.4564  21.8270
    22.7758

     occupation numbers 
     1.0000   1.0000   1.0000   1.0000   1.0000   1.0000   1.0000   1.0000
     1.0000  -0.0000  -0.0000  -0.0000  -0.0000  -0.0000  -0.0000  -0.0000
    -0.0000

          k =-0.7000 0.1000 1.1000 (  1808 PWs)   bands (ev):

    -7.2807  -7.1452  -7.1370  -7.1173  -7.0935  -2.6766   1.0264   4.0866
     4.9138  10.1413  11.4858  14.5029  16.0475  17.6260  19.9153  20.6710
    22.3345

     occupation numbers 
     1.0000   1.0000   1.0000   1.0000   1.0000   1.0000   1.0000   1.0000
     1.0000  -0.0000  -0.0000  -0.0000  -0.0000  -0.0000  -0.0000  -0.0000
    -0.0000

          k =-0.8000 0.2000 1.0000 (  1810 PWs)   bands (ev):

    -7.2798  -7.1423  -7.1383  -7.1206  -7.0913  -2.9761   1.3706   4.6843
     4.9966   9.8349  10.3666  14.8775  16.7191  18.0280  19.8887  20.9752
    22.1455

     occupation numbers 
     1.0000   1.0000   1.0000   1.0000   1.0000   1.0000   1.0000   1.0000
     1.0000  -0.0000  -0.0000  -0.0000  -0.0000  -0.0000  -0.0000  -0.0000
    -0.0000

          k =-0.9000 0.3000 0.9000 (  1805 PWs)   bands (ev):

    -7.2719  -7.1447  -7.1433  -7.1198  -7.0916  -3.3784   1.9510   5.0303
     5.3701   9.4652  10.4860  14.9502  15.5878  17.5403  20.0109  20.5593
    22.3906

     occupation numbers 
     1.0000   1.0000   1.0000   1.0000   1.0000   1.0000   1.0000   1.0000
     1.0000  -0.0000  -0.0000  -0.0000  -0.0000  -0.0000  -0.0000  -0.0000
    -0.0000

          k =-1.0000 0.4000 0.8000 (  1824 PWs)   bands (ev):

    -7.2590  -7.1532  -7.1503  -7.1149  -7.0940  -3.7082   2.4835   5.1017
     5.7345  10.1380  10.9832  13.4933  14.9941  16.7182  19.4635  19.8413
    21.3948

     occupation numbers 
     1.0000   1.0000   1.0000   1.0000   1.0000   1.0000   1.0000   1.0000
     1.0000  -0.0000  -0.0000  -0.0000  -0.0000  -0.0000  -0.0000  -0.0000
    -0.0000

          k =-1.1000 0.5000 0.7000 (  1831 PWs)   bands (ev):

    -7.2475  -7.1613  -7.1582  -7.1081  -7.0971  -3.8836   2.5830   5.1935
     6.3920  10.4609  11.6082  13.0923  13.7350  16.3804  18.2719  19.3108
    20.7756

     occupation numbers 
     1.0000   1.0000   1.0000   1.0000   1.0000   1.0000   1.0000   1.0000
     1.0000  -0.0000  -0.0000  -0.0000  -0.0000  -0.0000  -0.0000  -0.0000
    -0.0000

          k =-1.2000 0.6000 0.6000 (  1830 PWs)   bands (ev):

    -7.2453  -7.1638  -7.1626  -7.1028  -7.0991  -3.8774   2.2420   5.7110
     6.7723   9.6020  12.3652  12.3849  14.4619  16.4801  17.1153  18.9183
    20.8606

     occupation numbers 
     1.0000   1.0000   1.0000   1.0000   1.0000   1.0000   1.0000   1.0000
     1.0000  -0.0000  -0.0000  -0.0000  -0.0000  -0.0000  -0.0000  -0.0000
    -0.0000

          k =-0.2000-0.2000 1.6000 (  1828 PWs)   bands (ev):

    -7.2336  -7.1667  -7.1643  -7.1060  -7.0983  -4.2386   3.1657   6.3912
     6.4426   9.8236  11.6086  12.9629  13.5409  16.1082  17.5236  17.8209
    20.2045

     occupation numbers 
     1.0000   1.0000   1.0000   1.0000   1.0000   1.0000   1.0000   1.0000
     1.0000  -0.0000  -0.0000  -0.0000  -0.0000  -0.0000  -0.0000  -0.0000
    -0.0000

          k =-0.3000-0.1000 1.5000 (  1831 PWs)   bands (ev):

    -7.2475  -7.1613  -7.1582  -7.1081  -7.0971  -3.8836   2.5830   5.1935
     6.3920  10.4609  11.6082  13.0923  13.7350  16.3804  18.2719  19.3108
    20.7756

     occupation numbers 
     1.0000   1.0000   1.0000   1.0000   1.0000   1.0000   1.0000   1.0000
     1.0000  -0.0000  -0.0000  -0.0000  -0.0000  -0.0000  -0.0000  -0.0000
    -0.0000

          k =-0.4000-0.0000 1.4000 (  1813 PWs)   bands (ev):

    -7.2601  -7.1573  -7.1514  -7.1083  -7.0979  -3.4108   1.9203   4.3077
     6.0103  10.9164  12.0736  12.8220  14.6942  16.5308  18.3428  20.5761
    21.2473

     occupation numbers 
     1.0000   1.0000   1.0000   1.0000   1.0000   1.0000   1.0000   1.0000
     1.0000  -0.0000  -0.0000  -0.0000  -0.0000  -0.0000  -0.0000  -0.0000
    -0.0000

          k =-0.5000 0.1000 1.3000 (  1821 PWs)   bands (ev):

    -7.2687  -7.1550  -7.1460  -7.1077  -7.0988  -2.9839   1.3012   3.9836
     5.6135  10.7204  12.3734  13.7257  15.3413  16.0991  18.0449  20.6625
    22.0071

     occupation numbers 
     1.0000   1.0000   1.0000   1.0000   1.0000   1.0000   1.0000   1.0000
     1.0000  -0.0000  -0.0000  -0.0000  -0.0000  -0.0000  -0.0000  -0.0000
    -0.0000

          k =-0.6000 0.2000 1.2000 (  1814 PWs)   bands (ev):

    -7.2719  -7.1531  -7.1439  -7.1103  -7.0967  -2.8911   1.1577   4.0981
     5.3964  10.5056  12.4166  13.6680  15.2466  16.5176  19.6684  20.5154
    20.6633

     occupation numbers 
     1.0000   1.0000   1.0000   1.0000   1.0000   1.0000   1.0000   1.0000
     1.0000  -0.0000  -0.0000  -0.0000  -0.0000  -0.0000  -0.0000  -0.0000
    -0.0000

          k =-0.7000 0.3000 1.1000 (  1815 PWs)   bands (ev):

    -7.2687  -7.1519  -7.1454  -7.1138  -7.0943  -3.2227   1.6588   4.5008
     5.4487  10.4063  11.7171  13.1579  15.3639  17.6439  19.2533  20.7463
    21.0268

     occupation numbers 
     1.0000   1.0000   1.0000   1.0000   1.0000   1.0000   1.0000   1.0000
     1.0000  -0.0000  -0.0000  -0.0000  -0.0000  -0.0000  -0.0000  -0.0000
    -0.0000

          k =-0.8000 0.4000 1.0000 (  1824 PWs)   bands (ev):

    -7.2590  -7.1532  -7.1503  -7.1149  -7.0940  -3.7082   2.4835   5.1017
     5.7345  10.1380  10.9832  13.4933  14.9941  16.7182  19.4635  19.8413
    21.3948

     occupation numbers 
     1.0000   1.0000   1.0000   1.0000   1.0000   1.0000   1.0000   1.0000
     1.0000  -0.0000  -0.0000  -0.0000  -0.0000  -0.0000  -0.0000  -0.0000
    -0.0000

          k =-0.9000 0.5000 0.9000 (  1823 PWs)   bands (ev):

    -7.2444  -7.1586  -7.1574  -7.1125  -7.0955  -4.1224   3.2869   5.8120
     5.9753   9.9465  11.0530  13.5810  14.0421  15.8596  18.6974  18.9790
    20.7188

     occupation numbers 
     1.0000   1.0000   1.0000   1.0000   1.0000   1.0000   1.0000   1.0000
     1.0000  -0.0000  -0.0000  -0.0000  -0.0000  -0.0000  -0.0000  -0.0000
    -0.0000

          k =-1.0000 0.6000 0.8000 (  1832 PWs)   bands (ev):

    -7.2298  -7.1664  -7.1641  -7.1080  -7.0981  -4.3677   3.7808   5.8201
     6.7253  10.4716  10.9829  13.1104  13.2209  15.6080  17.8370  18.2907
    20.1639

     occupation numbers 
     1.0000   1.0000   1.0000   1.0000   1.0000   1.0000   1.0000   1.0000
     1.0000  -0.0000  -0.0000  -0.0000  -0.0000  -0.0000  -0.0000  -0.0000
    -0.0000

          k =-1.1000 0.7000 0.7000 (  1828 PWs)   bands (ev):

    -7.2247  -7.1701  -7.1671  -7.1044  -7.1002  -4.4078   3.6617   6.0489
     7.1560   9.8115  12.0682  12.1488  13.3770  15.8945  17.0039  17.9488
    19.7468

     occupation numbers 
     1.0000   1.0000   1.0000   1.0000   1.0000   1.0000   1.0000   1.0000
     1.0000  -0.0000  -0.0000  -0.0000  -0.0000  -0.0000  -0.0000  -0.0000
    -0.0000

          k =-0.1000-0.1000 1.7000 (  1820 PWs)   bands (ev):

    -7.2123  -7.1718  -7.1708  -7.1058  -7.0997  -4.6912   4.7236   6.7691
     6.8317  10.0274  10.9766  12.6141  12.7914  15.5635  17.2333  17.6712
    19.2474

     occupation numbers 
     1.0000   1.0000   1.0000   1.0000   1.0000   1.0000   1.0000   1.0000
     1.0000  -0.0000  -0.0000  -0.0000  -0.0000  -0.0000  -0.0000  -0.0000
    -0.0000

          k =-0.2000 0.0000 1.6000 (  1832 PWs)   bands (ev):

    -7.2298  -7.1664  -7.1641  -7.1080  -7.0981  -4.3677   3.7808   5.8201
     6.7253  10.4716  10.9829  13.1104  13.2209  15.6080  17.8370  18.2907
    20.1639

     occupation numbers 
     1.0000   1.0000   1.0000   1.0000   1.0000   1.0000   1.0000   1.0000
     1.0000  -0.0000  -0.0000  -0.0000  -0.0000  -0.0000  -0.0000  -0.0000
    -0.0000

          k =-0.3000 0.1000 1.5000 (  1831 PWs)   bands (ev):

    -7.2475  -7.1613  -7.1582  -7.1081  -7.0971  -3.8836   2.5830   5.1935
     6.3920  10.4609  11.6082  13.0923  13.7350  16.3804  18.2719  19.3108
    20.7756

     occupation numbers 
     1.0000   1.0000   1.0000   1.0000   1.0000   1.0000   1.0000   1.0000
     1.0000  -0.0000  -0.0000  -0.0000  -0.0000  -0.0000  -0.0000  -0.0000
    -0.0000

          k =-0.4000 0.2000 1.4000 (  1814 PWs)   bands (ev):

    -7.2604  -7.1587  -7.1541  -7.1057  -7.0972  -3.3705   1.5349   4.8921
     6.0787  10.3107  11.8403  13.4107  14.4749  17.3212  18.3465  19.5561
    20.8393

     occupation numbers 
     1.0000   1.0000   1.0000   1.0000   1.0000   1.0000   1.0000   1.0000
     1.0000  -0.0000  -0.0000  -0.0000  -0.0000  -0.0000  -0.0000  -0.0000
    -0.0000

          k =-0.5000 0.3000 1.3000 (  1814 PWs)   bands (ev):

    -7.2651  -7.1580  -7.1527  -7.1037  -7.0979  -3.1210   1.0929   4.8050
     5.9560  10.2511  11.8053  13.4752  15.5444  16.7934  18.7413  19.6528
    20.3347

     occupation numbers 
     1.0000   1.0000   1.0000   1.0000   1.0000   1.0000   1.0000   1.0000
     1.0000  -0.0000  -0.0000  -0.0000  -0.0000  -0.0000  -0.0000  -0.0000
    -0.0000

          k =-0.6000 0.4000 1.2000 (  1814 PWs)   bands (ev):

    -7.2604  -7.1587  -7.1541  -7.1057  -7.0972  -3.3705   1.5349   4.8921
     6.0787  10.3107  11.8403  13.4107  14.4749  17.3212  18.3465  19.5561
    20.8393

     occupation numbers 
     1.0000   1.0000   1.0000   1.0000   1.0000   1.0000   1.0000   1.0000
     1.0000  -0.0000  -0.0000  -0.0000  -0.0000  -0.0000  -0.0000  -0.0000
    -0.0000

          k =-0.7000 0.5000 1.1000 (  1831 PWs)   bands (ev):

    -7.2475  -7.1613  -7.1582  -7.1081  -7.0971  -3.8836   2.5830   5.1935
     6.3920  10.4609  11.6082  13.0923  13.7350  16.3804  18.2719  19.3108
    20.7756

     occupation numbers 
     1.0000   1.0000   1.0000   1.0000   1.0000   1.0000   1.0000   1.0000
     1.0000  -0.0000  -0.0000  -0.0000  -0.0000  -0.0000  -0.0000  -0.0000
    -0.0000

          k =-0.8000 0.6000 1.0000 (  1832 PWs)   bands (ev):

    -7.2298  -7.1664  -7.1641  -7.1080  -7.0981  -4.3677   3.7808   5.8201
     6.7253  10.4716  10.9829  13.1104  13.2209  15.6080  17.8370  18.2907
    20.1639

     occupation numbers 
     1.0000   1.0000   1.0000   1.0000   1.0000   1.0000   1.0000   1.0000
     1.0000  -0.0000  -0.0000  -0.0000  -0.0000  -0.0000  -0.0000  -0.0000
    -0.0000

          k =-0.9000 0.7000 0.9000 (  1820 PWs)   bands (ev):

    -7.2123  -7.1718  -7.1708  -7.1058  -7.0997  -4.6912   4.7236   6.7691
     6.8317  10.0274  10.9766  12.6141  12.7914  15.5635  17.2333  17.6712
    19.2474

     occupation numbers 
     1.0000   1.0000   1.0000   1.0000   1.0000   1.0000   1.0000   1.0000
     1.0000  -0.0000  -0.0000  -0.0000  -0.0000  -0.0000  -0.0000  -0.0000
    -0.0000

          k =-1.0000 0.8000 0.8000 (  1831 PWs)   bands (ev):

    -7.2034  -7.1761  -7.1733  -7.1039  -7.1012  -4.8036   5.1263   6.6810
     7.4571   9.7003  11.5354  11.6586  12.6304  16.2092  16.7285  17.0682
    19.5203

     occupation numbers 
     1.0000   1.0000   1.0000   1.0000   1.0000   1.0000   1.0000   1.0000
     1.0000  -0.0000  -0.0000  -0.0000  -0.0000  -0.0000  -0.0000  -0.0000
    -0.0000

          k = 0.0000 0.0000 1.8000 (  1840 PWs)   bands (ev):

    -7.1951  -7.1766  -7.1766  -7.1042  -7.1010  -4.9553   6.0717   7.1699
     7.1699   9.6461  10.8831  12.0073  12.0073  16.0331  16.3099  17.9565
    19.6462

     occupation numbers 
     1.0000   1.0000   1.0000   1.0000   1.0000   1.0000   1.0000   1.0000
     1.0000  -0.0000  -0.0000  -0.0000  -0.0000  -0.0000  -0.0000  -0.0000
    -0.0000

          k =-0.1000 0.1000 1.7000 (  1820 PWs)   bands (ev):

    -7.2123  -7.1718  -7.1708  -7.1058  -7.0997  -4.6912   4.7236   6.7691
     6.8317  10.0274  10.9766  12.6141  12.7914  15.5635  17.2333  17.6712
    19.2474

     occupation numbers 
     1.0000   1.0000   1.0000   1.0000   1.0000   1.0000   1.0000   1.0000
     1.0000  -0.0000  -0.0000  -0.0000  -0.0000  -0.0000  -0.0000  -0.0000
    -0.0000

          k =-0.2000 0.2000 1.6000 (  1828 PWs)   bands (ev):

    -7.2336  -7.1667  -7.1643  -7.1060  -7.0983  -4.2386   3.1657   6.3912
     6.4426   9.8236  11.6086  12.9629  13.5409  16.1082  17.5236  17.8209
    20.2045

     occupation numbers 
     1.0000   1.0000   1.0000   1.0000   1.0000   1.0000   1.0000   1.0000
     1.0000  -0.0000  -0.0000  -0.0000  -0.0000  -0.0000  -0.0000  -0.0000
    -0.0000

          k =-0.3000 0.3000 1.5000 (  1826 PWs)   bands (ev):

    -7.2517  -7.1625  -7.1600  -7.1039  -7.0970  -3.6946   1.8384   5.9802
     6.2697   9.5750  11.9136  12.9041  14.5628  16.9228  17.9359  18.8580
    21.1054

     occupation numbers 
     1.0000   1.0000   1.0000   1.0000   1.0000   1.0000   1.0000   1.0000
     1.0000  -0.0000  -0.0000  -0.0000  -0.0000  -0.0000  -0.0000  -0.0000
    -0.0000

          k =-0.4000 0.4000 1.4000 (  1817 PWs)   bands (ev):

    -7.2609  -7.1605  -7.1586  -7.1008  -7.0972  -3.3014   1.0771   5.7028
     6.2757   9.4387  11.9988  12.6994  15.6146  17.3425  19.0133  19.6064
    20.2215

     occupation numbers 
     1.0000   1.0000   1.0000   1.0000   1.0000   1.0000   1.0000   1.0000
     1.0000  -0.0000  -0.0000  -0.0000  -0.0000  -0.0000  -0.0000  -0.0000
    -0.0000

          k =-0.5000 0.5000 1.3000 (  1816 PWs)   bands (ev):

    -7.2586  -7.1605  -7.1598  -7.0997  -7.0990  -3.3937   1.2458   5.6043
     6.4543   9.4505  12.1586  12.5359  15.6118  17.3589  17.8838  19.3455
    20.5487

     occupation numbers 
     1.0000   1.0000   1.0000   1.0000   1.0000   1.0000   1.0000   1.0000
     1.0000  -0.0000  -0.0000  -0.0000  -0.0000  -0.0000  -0.0000  -0.0000
    -0.0000

          k =-0.6000 0.6000 1.2000 (  1830 PWs)   bands (ev):

    -7.2453  -7.1638  -7.1626  -7.1028  -7.0991  -3.8774   2.2420   5.7110
     6.7723   9.6020  12.3652  12.3849  14.4619  16.4801  17.1153  18.9183
    20.8606

     occupation numbers 
     1.0000   1.0000   1.0000   1.0000   1.0000   1.0000   1.0000   1.0000
     1.0000  -0.0000  -0.0000  -0.0000  -0.0000  -0.0000  -0.0000  -0.0000
    -0.0000

          k =-0.7000 0.7000 1.1000 (  1828 PWs)   bands (ev):

    -7.2247  -7.1701  -7.1671  -7.1044  -7.1002  -4.4078   3.6617   6.0489
     7.1560   9.8115  12.0682  12.1488  13.3770  15.8945  17.0039  17.9488
    19.7468

     occupation numbers 
     1.0000   1.0000   1.0000   1.0000   1.0000   1.0000   1.0000   1.0000
     1.0000  -0.0000  -0.0000  -0.0000  -0.0000  -0.0000  -0.0000  -0.0000
    -0.0000

          k =-0.8000 0.8000 1.0000 (  1831 PWs)   bands (ev):

    -7.2034  -7.1761  -7.1733  -7.1039  -7.1012  -4.8036   5.1263   6.6810
     7.4571   9.7003  11.5354  11.6586  12.6304  16.2092  16.7285  17.0682
    19.5203

     occupation numbers 
     1.0000   1.0000   1.0000   1.0000   1.0000   1.0000   1.0000   1.0000
     1.0000  -0.0000  -0.0000  -0.0000  -0.0000  -0.0000  -0.0000  -0.0000
    -0.0000

          k =-0.9000 0.9000 0.9000 (  1835 PWs)   bands (ev):

    -7.1899  -7.1788  -7.1788  -7.1024  -7.1024  -4.9944   6.1138   7.4696
     7.4696   9.1099  11.5888  11.5888  11.6142  15.9557  17.1231  17.1231
    18.7727

     occupation numbers 
     1.0000   1.0000   1.0000   1.0000   1.0000   1.0000   1.0000   1.0000
     1.0000  -0.0000  -0.0000  -0.0000  -0.0000  -0.0000  -0.0000  -0.0000
    -0.0000

     the Fermi energy is     7.9159 ev
     (compare with:     7.9153 eV, computed in scf)

     Writing all to output data dir ./work/GaAs.save/

     init_run     :      0.44s CPU      0.64s WALL (       1 calls)
     electrons    :    161.44s CPU    171.16s WALL (       1 calls)

     Called by init_run:
     wfcinit      :      0.00s CPU      0.18s WALL (       1 calls)
     wfcinit:atom :      0.13s CPU      0.14s WALL (    1000 calls)
     wfcinit:wfcr :      6.34s CPU      6.88s WALL (    1000 calls)
     potinit      :      0.09s CPU      0.10s WALL (       1 calls)
     hinit0       :      0.27s CPU      0.27s WALL (       1 calls)

     Called by electrons:
     c_bands      :    161.40s CPU    171.10s WALL (       1 calls)
     v_of_rho     :      0.01s CPU      0.01s WALL (       1 calls)
     v_h          :      0.00s CPU      0.00s WALL (       1 calls)
     v_xc         :      0.01s CPU      0.01s WALL (       1 calls)
     newd         :      0.01s CPU      0.01s WALL (       1 calls)
     PAW_pot      :      0.08s CPU      0.08s WALL (       1 calls)

     Called by c_bands:
     init_us_2    :      0.14s CPU      0.14s WALL (    1000 calls)
     init_us_2:cp :      0.13s CPU      0.14s WALL (    1000 calls)
     cegterg      :    151.60s CPU    158.63s WALL (    1992 calls)

     Called by sum_band:

     Called by *egterg:
     cdiaghg      :     10.31s CPU     10.73s WALL (   28746 calls)
     cegterg:over :     16.93s CPU     17.76s WALL (   27746 calls)
     cegterg:upda :      6.90s CPU      7.06s WALL (   27746 calls)
     cegterg:last :     19.05s CPU     19.45s WALL (   16262 calls)
     h_psi        :     92.31s CPU     97.54s WALL (   30738 calls)
     s_psi        :      5.77s CPU      6.15s WALL (   30738 calls)
     g_psi        :      0.49s CPU      0.50s WALL (   27746 calls)

     Called by h_psi:
     h_psi:calbec :      7.67s CPU      8.24s WALL (   30738 calls)
     vloc_psi     :     78.56s CPU     82.81s WALL (   30738 calls)
     add_vuspsi   :      5.73s CPU      6.15s WALL (   30738 calls)

     General routines
     calbec       :      7.62s CPU      8.19s WALL (   30738 calls)
     fft          :      0.14s CPU      0.14s WALL (      12 calls)
     fftw         :     70.96s CPU     74.74s WALL (  601972 calls)
     davcio       :      0.10s CPU      2.19s WALL (    2000 calls)

     Parallel routines

     PAW routines
     PAW_pot      :      0.08s CPU      0.08s WALL (       1 calls)

     PWSCF        :   2m42.85s CPU   3m14.79s WALL


   This run was terminated on:  12:51:13  18Oct2023            

=------------------------------------------------------------------------------=
   JOB DONE.
=------------------------------------------------------------------------------=
