File written on 18Oct2023 at 12:51:23 

calc_only_A  :  F

begin real_lattice
  -2.8258063   0.0000000   2.8258063
   0.0000000   2.8258063   2.8258063
  -2.8258063   2.8258063   0.0000000
end real_lattice

begin recip_lattice
  -1.1117509  -1.1117509   1.1117509
   1.1117509   1.1117509   1.1117509
  -1.1117509   1.1117509  -1.1117509
end recip_lattice

begin kpoints
  1000
    0.00000000    0.00000000    0.00000000
    0.00000000    0.00000000    0.10000000
    0.00000000    0.00000000    0.20000000
    0.00000000    0.00000000    0.30000000
    0.00000000    0.00000000    0.40000000
    0.00000000    0.00000000    0.50000000
    0.00000000    0.00000000    0.60000000
    0.00000000    0.00000000    0.70000000
    0.00000000    0.00000000    0.80000000
    0.00000000    0.00000000    0.90000000
    0.00000000    0.10000000    0.00000000
    0.00000000    0.10000000    0.10000000
    0.00000000    0.10000000    0.20000000
    0.00000000    0.10000000    0.30000000
    0.00000000    0.10000000    0.40000000
    0.00000000    0.10000000    0.50000000
    0.00000000    0.10000000    0.60000000
    0.00000000    0.10000000    0.70000000
    0.00000000    0.10000000    0.80000000
    0.00000000    0.10000000    0.90000000
    0.00000000    0.20000000    0.00000000
    0.00000000    0.20000000    0.10000000
    0.00000000    0.20000000    0.20000000
    0.00000000    0.20000000    0.30000000
    0.00000000    0.20000000    0.40000000
    0.00000000    0.20000000    0.50000000
    0.00000000    0.20000000    0.60000000
    0.00000000    0.20000000    0.70000000
    0.00000000    0.20000000    0.80000000
    0.00000000    0.20000000    0.90000000
    0.00000000    0.30000000    0.00000000
    0.00000000    0.30000000    0.10000000
    0.00000000    0.30000000    0.20000000
    0.00000000    0.30000000    0.30000000
    0.00000000    0.30000000    0.40000000
    0.00000000    0.30000000    0.50000000
    0.00000000    0.30000000    0.60000000
    0.00000000    0.30000000    0.70000000
    0.00000000    0.30000000    0.80000000
    0.00000000    0.30000000    0.90000000
    0.00000000    0.40000000    0.00000000
    0.00000000    0.40000000    0.10000000
    0.00000000    0.40000000    0.20000000
    0.00000000    0.40000000    0.30000000
    0.00000000    0.40000000    0.40000000
    0.00000000    0.40000000    0.50000000
    0.00000000    0.40000000    0.60000000
    0.00000000    0.40000000    0.70000000
    0.00000000    0.40000000    0.80000000
    0.00000000    0.40000000    0.90000000
    0.00000000    0.50000000    0.00000000
    0.00000000    0.50000000    0.10000000
    0.00000000    0.50000000    0.20000000
    0.00000000    0.50000000    0.30000000
    0.00000000    0.50000000    0.40000000
    0.00000000    0.50000000    0.50000000
    0.00000000    0.50000000    0.60000000
    0.00000000    0.50000000    0.70000000
    0.00000000    0.50000000    0.80000000
    0.00000000    0.50000000    0.90000000
    0.00000000    0.60000000    0.00000000
    0.00000000    0.60000000    0.10000000
    0.00000000    0.60000000    0.20000000
    0.00000000    0.60000000    0.30000000
    0.00000000    0.60000000    0.40000000
    0.00000000    0.60000000    0.50000000
    0.00000000    0.60000000    0.60000000
    0.00000000    0.60000000    0.70000000
    0.00000000    0.60000000    0.80000000
    0.00000000    0.60000000    0.90000000
    0.00000000    0.70000000    0.00000000
    0.00000000    0.70000000    0.10000000
    0.00000000    0.70000000    0.20000000
    0.00000000    0.70000000    0.30000000
    0.00000000    0.70000000    0.40000000
    0.00000000    0.70000000    0.50000000
    0.00000000    0.70000000    0.60000000
    0.00000000    0.70000000    0.70000000
    0.00000000    0.70000000    0.80000000
    0.00000000    0.70000000    0.90000000
    0.00000000    0.80000000    0.00000000
    0.00000000    0.80000000    0.10000000
    0.00000000    0.80000000    0.20000000
    0.00000000    0.80000000    0.30000000
    0.00000000    0.80000000    0.40000000
    0.00000000    0.80000000    0.50000000
    0.00000000    0.80000000    0.60000000
    0.00000000    0.80000000    0.70000000
    0.00000000    0.80000000    0.80000000
    0.00000000    0.80000000    0.90000000
    0.00000000    0.90000000    0.00000000
    0.00000000    0.90000000    0.10000000
    0.00000000    0.90000000    0.20000000
    0.00000000    0.90000000    0.30000000
    0.00000000    0.90000000    0.40000000
    0.00000000    0.90000000    0.50000000
    0.00000000    0.90000000    0.60000000
    0.00000000    0.90000000    0.70000000
    0.00000000    0.90000000    0.80000000
    0.00000000    0.90000000    0.90000000
    0.10000000    0.00000000    0.00000000
    0.10000000    0.00000000    0.10000000
    0.10000000    0.00000000    0.20000000
    0.10000000    0.00000000    0.30000000
    0.10000000    0.00000000    0.40000000
    0.10000000    0.00000000    0.50000000
    0.10000000    0.00000000    0.60000000
    0.10000000    0.00000000    0.70000000
    0.10000000    0.00000000    0.80000000
    0.10000000    0.00000000    0.90000000
    0.10000000    0.10000000    0.00000000
    0.10000000    0.10000000    0.10000000
    0.10000000    0.10000000    0.20000000
    0.10000000    0.10000000    0.30000000
    0.10000000    0.10000000    0.40000000
    0.10000000    0.10000000    0.50000000
    0.10000000    0.10000000    0.60000000
    0.10000000    0.10000000    0.70000000
    0.10000000    0.10000000    0.80000000
    0.10000000    0.10000000    0.90000000
    0.10000000    0.20000000    0.00000000
    0.10000000    0.20000000    0.10000000
    0.10000000    0.20000000    0.20000000
    0.10000000    0.20000000    0.30000000
    0.10000000    0.20000000    0.40000000
    0.10000000    0.20000000    0.50000000
    0.10000000    0.20000000    0.60000000
    0.10000000    0.20000000    0.70000000
    0.10000000    0.20000000    0.80000000
    0.10000000    0.20000000    0.90000000
    0.10000000    0.30000000    0.00000000
    0.10000000    0.30000000    0.10000000
    0.10000000    0.30000000    0.20000000
    0.10000000    0.30000000    0.30000000
    0.10000000    0.30000000    0.40000000
    0.10000000    0.30000000    0.50000000
    0.10000000    0.30000000    0.60000000
    0.10000000    0.30000000    0.70000000
    0.10000000    0.30000000    0.80000000
    0.10000000    0.30000000    0.90000000
    0.10000000    0.40000000    0.00000000
    0.10000000    0.40000000    0.10000000
    0.10000000    0.40000000    0.20000000
    0.10000000    0.40000000    0.30000000
    0.10000000    0.40000000    0.40000000
    0.10000000    0.40000000    0.50000000
    0.10000000    0.40000000    0.60000000
    0.10000000    0.40000000    0.70000000
    0.10000000    0.40000000    0.80000000
    0.10000000    0.40000000    0.90000000
    0.10000000    0.50000000    0.00000000
    0.10000000    0.50000000    0.10000000
    0.10000000    0.50000000    0.20000000
    0.10000000    0.50000000    0.30000000
    0.10000000    0.50000000    0.40000000
    0.10000000    0.50000000    0.50000000
    0.10000000    0.50000000    0.60000000
    0.10000000    0.50000000    0.70000000
    0.10000000    0.50000000    0.80000000
    0.10000000    0.50000000    0.90000000
    0.10000000    0.60000000    0.00000000
    0.10000000    0.60000000    0.10000000
    0.10000000    0.60000000    0.20000000
    0.10000000    0.60000000    0.30000000
    0.10000000    0.60000000    0.40000000
    0.10000000    0.60000000    0.50000000
    0.10000000    0.60000000    0.60000000
    0.10000000    0.60000000    0.70000000
    0.10000000    0.60000000    0.80000000
    0.10000000    0.60000000    0.90000000
    0.10000000    0.70000000    0.00000000
    0.10000000    0.70000000    0.10000000
    0.10000000    0.70000000    0.20000000
    0.10000000    0.70000000    0.30000000
    0.10000000    0.70000000    0.40000000
    0.10000000    0.70000000    0.50000000
    0.10000000    0.70000000    0.60000000
    0.10000000    0.70000000    0.70000000
    0.10000000    0.70000000    0.80000000
    0.10000000    0.70000000    0.90000000
    0.10000000    0.80000000    0.00000000
    0.10000000    0.80000000    0.10000000
    0.10000000    0.80000000    0.20000000
    0.10000000    0.80000000    0.30000000
    0.10000000    0.80000000    0.40000000
    0.10000000    0.80000000    0.50000000
    0.10000000    0.80000000    0.60000000
    0.10000000    0.80000000    0.70000000
    0.10000000    0.80000000    0.80000000
    0.10000000    0.80000000    0.90000000
    0.10000000    0.90000000    0.00000000
    0.10000000    0.90000000    0.10000000
    0.10000000    0.90000000    0.20000000
    0.10000000    0.90000000    0.30000000
    0.10000000    0.90000000    0.40000000
    0.10000000    0.90000000    0.50000000
    0.10000000    0.90000000    0.60000000
    0.10000000    0.90000000    0.70000000
    0.10000000    0.90000000    0.80000000
    0.10000000    0.90000000    0.90000000
    0.20000000    0.00000000    0.00000000
    0.20000000    0.00000000    0.10000000
    0.20000000    0.00000000    0.20000000
    0.20000000    0.00000000    0.30000000
    0.20000000    0.00000000    0.40000000
    0.20000000    0.00000000    0.50000000
    0.20000000    0.00000000    0.60000000
    0.20000000    0.00000000    0.70000000
    0.20000000    0.00000000    0.80000000
    0.20000000    0.00000000    0.90000000
    0.20000000    0.10000000    0.00000000
    0.20000000    0.10000000    0.10000000
    0.20000000    0.10000000    0.20000000
    0.20000000    0.10000000    0.30000000
    0.20000000    0.10000000    0.40000000
    0.20000000    0.10000000    0.50000000
    0.20000000    0.10000000    0.60000000
    0.20000000    0.10000000    0.70000000
    0.20000000    0.10000000    0.80000000
    0.20000000    0.10000000    0.90000000
    0.20000000    0.20000000    0.00000000
    0.20000000    0.20000000    0.10000000
    0.20000000    0.20000000    0.20000000
    0.20000000    0.20000000    0.30000000
    0.20000000    0.20000000    0.40000000
    0.20000000    0.20000000    0.50000000
    0.20000000    0.20000000    0.60000000
    0.20000000    0.20000000    0.70000000
    0.20000000    0.20000000    0.80000000
    0.20000000    0.20000000    0.90000000
    0.20000000    0.30000000    0.00000000
    0.20000000    0.30000000    0.10000000
    0.20000000    0.30000000    0.20000000
    0.20000000    0.30000000    0.30000000
    0.20000000    0.30000000    0.40000000
    0.20000000    0.30000000    0.50000000
    0.20000000    0.30000000    0.60000000
    0.20000000    0.30000000    0.70000000
    0.20000000    0.30000000    0.80000000
    0.20000000    0.30000000    0.90000000
    0.20000000    0.40000000    0.00000000
    0.20000000    0.40000000    0.10000000
    0.20000000    0.40000000    0.20000000
    0.20000000    0.40000000    0.30000000
    0.20000000    0.40000000    0.40000000
    0.20000000    0.40000000    0.50000000
    0.20000000    0.40000000    0.60000000
    0.20000000    0.40000000    0.70000000
    0.20000000    0.40000000    0.80000000
    0.20000000    0.40000000    0.90000000
    0.20000000    0.50000000    0.00000000
    0.20000000    0.50000000    0.10000000
    0.20000000    0.50000000    0.20000000
    0.20000000    0.50000000    0.30000000
    0.20000000    0.50000000    0.40000000
    0.20000000    0.50000000    0.50000000
    0.20000000    0.50000000    0.60000000
    0.20000000    0.50000000    0.70000000
    0.20000000    0.50000000    0.80000000
    0.20000000    0.50000000    0.90000000
    0.20000000    0.60000000    0.00000000
    0.20000000    0.60000000    0.10000000
    0.20000000    0.60000000    0.20000000
    0.20000000    0.60000000    0.30000000
    0.20000000    0.60000000    0.40000000
    0.20000000    0.60000000    0.50000000
    0.20000000    0.60000000    0.60000000
    0.20000000    0.60000000    0.70000000
    0.20000000    0.60000000    0.80000000
    0.20000000    0.60000000    0.90000000
    0.20000000    0.70000000    0.00000000
    0.20000000    0.70000000    0.10000000
    0.20000000    0.70000000    0.20000000
    0.20000000    0.70000000    0.30000000
    0.20000000    0.70000000    0.40000000
    0.20000000    0.70000000    0.50000000
    0.20000000    0.70000000    0.60000000
    0.20000000    0.70000000    0.70000000
    0.20000000    0.70000000    0.80000000
    0.20000000    0.70000000    0.90000000
    0.20000000    0.80000000    0.00000000
    0.20000000    0.80000000    0.10000000
    0.20000000    0.80000000    0.20000000
    0.20000000    0.80000000    0.30000000
    0.20000000    0.80000000    0.40000000
    0.20000000    0.80000000    0.50000000
    0.20000000    0.80000000    0.60000000
    0.20000000    0.80000000    0.70000000
    0.20000000    0.80000000    0.80000000
    0.20000000    0.80000000    0.90000000
    0.20000000    0.90000000    0.00000000
    0.20000000    0.90000000    0.10000000
    0.20000000    0.90000000    0.20000000
    0.20000000    0.90000000    0.30000000
    0.20000000    0.90000000    0.40000000
    0.20000000    0.90000000    0.50000000
    0.20000000    0.90000000    0.60000000
    0.20000000    0.90000000    0.70000000
    0.20000000    0.90000000    0.80000000
    0.20000000    0.90000000    0.90000000
    0.30000000    0.00000000    0.00000000
    0.30000000    0.00000000    0.10000000
    0.30000000    0.00000000    0.20000000
    0.30000000    0.00000000    0.30000000
    0.30000000    0.00000000    0.40000000
    0.30000000    0.00000000    0.50000000
    0.30000000    0.00000000    0.60000000
    0.30000000    0.00000000    0.70000000
    0.30000000    0.00000000    0.80000000
    0.30000000    0.00000000    0.90000000
    0.30000000    0.10000000    0.00000000
    0.30000000    0.10000000    0.10000000
    0.30000000    0.10000000    0.20000000
    0.30000000    0.10000000    0.30000000
    0.30000000    0.10000000    0.40000000
    0.30000000    0.10000000    0.50000000
    0.30000000    0.10000000    0.60000000
    0.30000000    0.10000000    0.70000000
    0.30000000    0.10000000    0.80000000
    0.30000000    0.10000000    0.90000000
    0.30000000    0.20000000    0.00000000
    0.30000000    0.20000000    0.10000000
    0.30000000    0.20000000    0.20000000
    0.30000000    0.20000000    0.30000000
    0.30000000    0.20000000    0.40000000
    0.30000000    0.20000000    0.50000000
    0.30000000    0.20000000    0.60000000
    0.30000000    0.20000000    0.70000000
    0.30000000    0.20000000    0.80000000
    0.30000000    0.20000000    0.90000000
    0.30000000    0.30000000    0.00000000
    0.30000000    0.30000000    0.10000000
    0.30000000    0.30000000    0.20000000
    0.30000000    0.30000000    0.30000000
    0.30000000    0.30000000    0.40000000
    0.30000000    0.30000000    0.50000000
    0.30000000    0.30000000    0.60000000
    0.30000000    0.30000000    0.70000000
    0.30000000    0.30000000    0.80000000
    0.30000000    0.30000000    0.90000000
    0.30000000    0.40000000    0.00000000
    0.30000000    0.40000000    0.10000000
    0.30000000    0.40000000    0.20000000
    0.30000000    0.40000000    0.30000000
    0.30000000    0.40000000    0.40000000
    0.30000000    0.40000000    0.50000000
    0.30000000    0.40000000    0.60000000
    0.30000000    0.40000000    0.70000000
    0.30000000    0.40000000    0.80000000
    0.30000000    0.40000000    0.90000000
    0.30000000    0.50000000    0.00000000
    0.30000000    0.50000000    0.10000000
    0.30000000    0.50000000    0.20000000
    0.30000000    0.50000000    0.30000000
    0.30000000    0.50000000    0.40000000
    0.30000000    0.50000000    0.50000000
    0.30000000    0.50000000    0.60000000
    0.30000000    0.50000000    0.70000000
    0.30000000    0.50000000    0.80000000
    0.30000000    0.50000000    0.90000000
    0.30000000    0.60000000    0.00000000
    0.30000000    0.60000000    0.10000000
    0.30000000    0.60000000    0.20000000
    0.30000000    0.60000000    0.30000000
    0.30000000    0.60000000    0.40000000
    0.30000000    0.60000000    0.50000000
    0.30000000    0.60000000    0.60000000
    0.30000000    0.60000000    0.70000000
    0.30000000    0.60000000    0.80000000
    0.30000000    0.60000000    0.90000000
    0.30000000    0.70000000    0.00000000
    0.30000000    0.70000000    0.10000000
    0.30000000    0.70000000    0.20000000
    0.30000000    0.70000000    0.30000000
    0.30000000    0.70000000    0.40000000
    0.30000000    0.70000000    0.50000000
    0.30000000    0.70000000    0.60000000
    0.30000000    0.70000000    0.70000000
    0.30000000    0.70000000    0.80000000
    0.30000000    0.70000000    0.90000000
    0.30000000    0.80000000    0.00000000
    0.30000000    0.80000000    0.10000000
    0.30000000    0.80000000    0.20000000
    0.30000000    0.80000000    0.30000000
    0.30000000    0.80000000    0.40000000
    0.30000000    0.80000000    0.50000000
    0.30000000    0.80000000    0.60000000
    0.30000000    0.80000000    0.70000000
    0.30000000    0.80000000    0.80000000
    0.30000000    0.80000000    0.90000000
    0.30000000    0.90000000    0.00000000
    0.30000000    0.90000000    0.10000000
    0.30000000    0.90000000    0.20000000
    0.30000000    0.90000000    0.30000000
    0.30000000    0.90000000    0.40000000
    0.30000000    0.90000000    0.50000000
    0.30000000    0.90000000    0.60000000
    0.30000000    0.90000000    0.70000000
    0.30000000    0.90000000    0.80000000
    0.30000000    0.90000000    0.90000000
    0.40000000    0.00000000    0.00000000
    0.40000000    0.00000000    0.10000000
    0.40000000    0.00000000    0.20000000
    0.40000000    0.00000000    0.30000000
    0.40000000    0.00000000    0.40000000
    0.40000000    0.00000000    0.50000000
    0.40000000    0.00000000    0.60000000
    0.40000000    0.00000000    0.70000000
    0.40000000    0.00000000    0.80000000
    0.40000000    0.00000000    0.90000000
    0.40000000    0.10000000    0.00000000
    0.40000000    0.10000000    0.10000000
    0.40000000    0.10000000    0.20000000
    0.40000000    0.10000000    0.30000000
    0.40000000    0.10000000    0.40000000
    0.40000000    0.10000000    0.50000000
    0.40000000    0.10000000    0.60000000
    0.40000000    0.10000000    0.70000000
    0.40000000    0.10000000    0.80000000
    0.40000000    0.10000000    0.90000000
    0.40000000    0.20000000    0.00000000
    0.40000000    0.20000000    0.10000000
    0.40000000    0.20000000    0.20000000
    0.40000000    0.20000000    0.30000000
    0.40000000    0.20000000    0.40000000
    0.40000000    0.20000000    0.50000000
    0.40000000    0.20000000    0.60000000
    0.40000000    0.20000000    0.70000000
    0.40000000    0.20000000    0.80000000
    0.40000000    0.20000000    0.90000000
    0.40000000    0.30000000    0.00000000
    0.40000000    0.30000000    0.10000000
    0.40000000    0.30000000    0.20000000
    0.40000000    0.30000000    0.30000000
    0.40000000    0.30000000    0.40000000
    0.40000000    0.30000000    0.50000000
    0.40000000    0.30000000    0.60000000
    0.40000000    0.30000000    0.70000000
    0.40000000    0.30000000    0.80000000
    0.40000000    0.30000000    0.90000000
    0.40000000    0.40000000    0.00000000
    0.40000000    0.40000000    0.10000000
    0.40000000    0.40000000    0.20000000
    0.40000000    0.40000000    0.30000000
    0.40000000    0.40000000    0.40000000
    0.40000000    0.40000000    0.50000000
    0.40000000    0.40000000    0.60000000
    0.40000000    0.40000000    0.70000000
    0.40000000    0.40000000    0.80000000
    0.40000000    0.40000000    0.90000000
    0.40000000    0.50000000    0.00000000
    0.40000000    0.50000000    0.10000000
    0.40000000    0.50000000    0.20000000
    0.40000000    0.50000000    0.30000000
    0.40000000    0.50000000    0.40000000
    0.40000000    0.50000000    0.50000000
    0.40000000    0.50000000    0.60000000
    0.40000000    0.50000000    0.70000000
    0.40000000    0.50000000    0.80000000
    0.40000000    0.50000000    0.90000000
    0.40000000    0.60000000    0.00000000
    0.40000000    0.60000000    0.10000000
    0.40000000    0.60000000    0.20000000
    0.40000000    0.60000000    0.30000000
    0.40000000    0.60000000    0.40000000
    0.40000000    0.60000000    0.50000000
    0.40000000    0.60000000    0.60000000
    0.40000000    0.60000000    0.70000000
    0.40000000    0.60000000    0.80000000
    0.40000000    0.60000000    0.90000000
    0.40000000    0.70000000    0.00000000
    0.40000000    0.70000000    0.10000000
    0.40000000    0.70000000    0.20000000
    0.40000000    0.70000000    0.30000000
    0.40000000    0.70000000    0.40000000
    0.40000000    0.70000000    0.50000000
    0.40000000    0.70000000    0.60000000
    0.40000000    0.70000000    0.70000000
    0.40000000    0.70000000    0.80000000
    0.40000000    0.70000000    0.90000000
    0.40000000    0.80000000    0.00000000
    0.40000000    0.80000000    0.10000000
    0.40000000    0.80000000    0.20000000
    0.40000000    0.80000000    0.30000000
    0.40000000    0.80000000    0.40000000
    0.40000000    0.80000000    0.50000000
    0.40000000    0.80000000    0.60000000
    0.40000000    0.80000000    0.70000000
    0.40000000    0.80000000    0.80000000
    0.40000000    0.80000000    0.90000000
    0.40000000    0.90000000    0.00000000
    0.40000000    0.90000000    0.10000000
    0.40000000    0.90000000    0.20000000
    0.40000000    0.90000000    0.30000000
    0.40000000    0.90000000    0.40000000
    0.40000000    0.90000000    0.50000000
    0.40000000    0.90000000    0.60000000
    0.40000000    0.90000000    0.70000000
    0.40000000    0.90000000    0.80000000
    0.40000000    0.90000000    0.90000000
    0.50000000    0.00000000    0.00000000
    0.50000000    0.00000000    0.10000000
    0.50000000    0.00000000    0.20000000
    0.50000000    0.00000000    0.30000000
    0.50000000    0.00000000    0.40000000
    0.50000000    0.00000000    0.50000000
    0.50000000    0.00000000    0.60000000
    0.50000000    0.00000000    0.70000000
    0.50000000    0.00000000    0.80000000
    0.50000000    0.00000000    0.90000000
    0.50000000    0.10000000    0.00000000
    0.50000000    0.10000000    0.10000000
    0.50000000    0.10000000    0.20000000
    0.50000000    0.10000000    0.30000000
    0.50000000    0.10000000    0.40000000
    0.50000000    0.10000000    0.50000000
    0.50000000    0.10000000    0.60000000
    0.50000000    0.10000000    0.70000000
    0.50000000    0.10000000    0.80000000
    0.50000000    0.10000000    0.90000000
    0.50000000    0.20000000    0.00000000
    0.50000000    0.20000000    0.10000000
    0.50000000    0.20000000    0.20000000
    0.50000000    0.20000000    0.30000000
    0.50000000    0.20000000    0.40000000
    0.50000000    0.20000000    0.50000000
    0.50000000    0.20000000    0.60000000
    0.50000000    0.20000000    0.70000000
    0.50000000    0.20000000    0.80000000
    0.50000000    0.20000000    0.90000000
    0.50000000    0.30000000    0.00000000
    0.50000000    0.30000000    0.10000000
    0.50000000    0.30000000    0.20000000
    0.50000000    0.30000000    0.30000000
    0.50000000    0.30000000    0.40000000
    0.50000000    0.30000000    0.50000000
    0.50000000    0.30000000    0.60000000
    0.50000000    0.30000000    0.70000000
    0.50000000    0.30000000    0.80000000
    0.50000000    0.30000000    0.90000000
    0.50000000    0.40000000    0.00000000
    0.50000000    0.40000000    0.10000000
    0.50000000    0.40000000    0.20000000
    0.50000000    0.40000000    0.30000000
    0.50000000    0.40000000    0.40000000
    0.50000000    0.40000000    0.50000000
    0.50000000    0.40000000    0.60000000
    0.50000000    0.40000000    0.70000000
    0.50000000    0.40000000    0.80000000
    0.50000000    0.40000000    0.90000000
    0.50000000    0.50000000    0.00000000
    0.50000000    0.50000000    0.10000000
    0.50000000    0.50000000    0.20000000
    0.50000000    0.50000000    0.30000000
    0.50000000    0.50000000    0.40000000
    0.50000000    0.50000000    0.50000000
    0.50000000    0.50000000    0.60000000
    0.50000000    0.50000000    0.70000000
    0.50000000    0.50000000    0.80000000
    0.50000000    0.50000000    0.90000000
    0.50000000    0.60000000    0.00000000
    0.50000000    0.60000000    0.10000000
    0.50000000    0.60000000    0.20000000
    0.50000000    0.60000000    0.30000000
    0.50000000    0.60000000    0.40000000
    0.50000000    0.60000000    0.50000000
    0.50000000    0.60000000    0.60000000
    0.50000000    0.60000000    0.70000000
    0.50000000    0.60000000    0.80000000
    0.50000000    0.60000000    0.90000000
    0.50000000    0.70000000    0.00000000
    0.50000000    0.70000000    0.10000000
    0.50000000    0.70000000    0.20000000
    0.50000000    0.70000000    0.30000000
    0.50000000    0.70000000    0.40000000
    0.50000000    0.70000000    0.50000000
    0.50000000    0.70000000    0.60000000
    0.50000000    0.70000000    0.70000000
    0.50000000    0.70000000    0.80000000
    0.50000000    0.70000000    0.90000000
    0.50000000    0.80000000    0.00000000
    0.50000000    0.80000000    0.10000000
    0.50000000    0.80000000    0.20000000
    0.50000000    0.80000000    0.30000000
    0.50000000    0.80000000    0.40000000
    0.50000000    0.80000000    0.50000000
    0.50000000    0.80000000    0.60000000
    0.50000000    0.80000000    0.70000000
    0.50000000    0.80000000    0.80000000
    0.50000000    0.80000000    0.90000000
    0.50000000    0.90000000    0.00000000
    0.50000000    0.90000000    0.10000000
    0.50000000    0.90000000    0.20000000
    0.50000000    0.90000000    0.30000000
    0.50000000    0.90000000    0.40000000
    0.50000000    0.90000000    0.50000000
    0.50000000    0.90000000    0.60000000
    0.50000000    0.90000000    0.70000000
    0.50000000    0.90000000    0.80000000
    0.50000000    0.90000000    0.90000000
    0.60000000    0.00000000    0.00000000
    0.60000000    0.00000000    0.10000000
    0.60000000    0.00000000    0.20000000
    0.60000000    0.00000000    0.30000000
    0.60000000    0.00000000    0.40000000
    0.60000000    0.00000000    0.50000000
    0.60000000    0.00000000    0.60000000
    0.60000000    0.00000000    0.70000000
    0.60000000    0.00000000    0.80000000
    0.60000000    0.00000000    0.90000000
    0.60000000    0.10000000    0.00000000
    0.60000000    0.10000000    0.10000000
    0.60000000    0.10000000    0.20000000
    0.60000000    0.10000000    0.30000000
    0.60000000    0.10000000    0.40000000
    0.60000000    0.10000000    0.50000000
    0.60000000    0.10000000    0.60000000
    0.60000000    0.10000000    0.70000000
    0.60000000    0.10000000    0.80000000
    0.60000000    0.10000000    0.90000000
    0.60000000    0.20000000    0.00000000
    0.60000000    0.20000000    0.10000000
    0.60000000    0.20000000    0.20000000
    0.60000000    0.20000000    0.30000000
    0.60000000    0.20000000    0.40000000
    0.60000000    0.20000000    0.50000000
    0.60000000    0.20000000    0.60000000
    0.60000000    0.20000000    0.70000000
    0.60000000    0.20000000    0.80000000
    0.60000000    0.20000000    0.90000000
    0.60000000    0.30000000    0.00000000
    0.60000000    0.30000000    0.10000000
    0.60000000    0.30000000    0.20000000
    0.60000000    0.30000000    0.30000000
    0.60000000    0.30000000    0.40000000
    0.60000000    0.30000000    0.50000000
    0.60000000    0.30000000    0.60000000
    0.60000000    0.30000000    0.70000000
    0.60000000    0.30000000    0.80000000
    0.60000000    0.30000000    0.90000000
    0.60000000    0.40000000    0.00000000
    0.60000000    0.40000000    0.10000000
    0.60000000    0.40000000    0.20000000
    0.60000000    0.40000000    0.30000000
    0.60000000    0.40000000    0.40000000
    0.60000000    0.40000000    0.50000000
    0.60000000    0.40000000    0.60000000
    0.60000000    0.40000000    0.70000000
    0.60000000    0.40000000    0.80000000
    0.60000000    0.40000000    0.90000000
    0.60000000    0.50000000    0.00000000
    0.60000000    0.50000000    0.10000000
    0.60000000    0.50000000    0.20000000
    0.60000000    0.50000000    0.30000000
    0.60000000    0.50000000    0.40000000
    0.60000000    0.50000000    0.50000000
    0.60000000    0.50000000    0.60000000
    0.60000000    0.50000000    0.70000000
    0.60000000    0.50000000    0.80000000
    0.60000000    0.50000000    0.90000000
    0.60000000    0.60000000    0.00000000
    0.60000000    0.60000000    0.10000000
    0.60000000    0.60000000    0.20000000
    0.60000000    0.60000000    0.30000000
    0.60000000    0.60000000    0.40000000
    0.60000000    0.60000000    0.50000000
    0.60000000    0.60000000    0.60000000
    0.60000000    0.60000000    0.70000000
    0.60000000    0.60000000    0.80000000
    0.60000000    0.60000000    0.90000000
    0.60000000    0.70000000    0.00000000
    0.60000000    0.70000000    0.10000000
    0.60000000    0.70000000    0.20000000
    0.60000000    0.70000000    0.30000000
    0.60000000    0.70000000    0.40000000
    0.60000000    0.70000000    0.50000000
    0.60000000    0.70000000    0.60000000
    0.60000000    0.70000000    0.70000000
    0.60000000    0.70000000    0.80000000
    0.60000000    0.70000000    0.90000000
    0.60000000    0.80000000    0.00000000
    0.60000000    0.80000000    0.10000000
    0.60000000    0.80000000    0.20000000
    0.60000000    0.80000000    0.30000000
    0.60000000    0.80000000    0.40000000
    0.60000000    0.80000000    0.50000000
    0.60000000    0.80000000    0.60000000
    0.60000000    0.80000000    0.70000000
    0.60000000    0.80000000    0.80000000
    0.60000000    0.80000000    0.90000000
    0.60000000    0.90000000    0.00000000
    0.60000000    0.90000000    0.10000000
    0.60000000    0.90000000    0.20000000
    0.60000000    0.90000000    0.30000000
    0.60000000    0.90000000    0.40000000
    0.60000000    0.90000000    0.50000000
    0.60000000    0.90000000    0.60000000
    0.60000000    0.90000000    0.70000000
    0.60000000    0.90000000    0.80000000
    0.60000000    0.90000000    0.90000000
    0.70000000    0.00000000    0.00000000
    0.70000000    0.00000000    0.10000000
    0.70000000    0.00000000    0.20000000
    0.70000000    0.00000000    0.30000000
    0.70000000    0.00000000    0.40000000
    0.70000000    0.00000000    0.50000000
    0.70000000    0.00000000    0.60000000
    0.70000000    0.00000000    0.70000000
    0.70000000    0.00000000    0.80000000
    0.70000000    0.00000000    0.90000000
    0.70000000    0.10000000    0.00000000
    0.70000000    0.10000000    0.10000000
    0.70000000    0.10000000    0.20000000
    0.70000000    0.10000000    0.30000000
    0.70000000    0.10000000    0.40000000
    0.70000000    0.10000000    0.50000000
    0.70000000    0.10000000    0.60000000
    0.70000000    0.10000000    0.70000000
    0.70000000    0.10000000    0.80000000
    0.70000000    0.10000000    0.90000000
    0.70000000    0.20000000    0.00000000
    0.70000000    0.20000000    0.10000000
    0.70000000    0.20000000    0.20000000
    0.70000000    0.20000000    0.30000000
    0.70000000    0.20000000    0.40000000
    0.70000000    0.20000000    0.50000000
    0.70000000    0.20000000    0.60000000
    0.70000000    0.20000000    0.70000000
    0.70000000    0.20000000    0.80000000
    0.70000000    0.20000000    0.90000000
    0.70000000    0.30000000    0.00000000
    0.70000000    0.30000000    0.10000000
    0.70000000    0.30000000    0.20000000
    0.70000000    0.30000000    0.30000000
    0.70000000    0.30000000    0.40000000
    0.70000000    0.30000000    0.50000000
    0.70000000    0.30000000    0.60000000
    0.70000000    0.30000000    0.70000000
    0.70000000    0.30000000    0.80000000
    0.70000000    0.30000000    0.90000000
    0.70000000    0.40000000    0.00000000
    0.70000000    0.40000000    0.10000000
    0.70000000    0.40000000    0.20000000
    0.70000000    0.40000000    0.30000000
    0.70000000    0.40000000    0.40000000
    0.70000000    0.40000000    0.50000000
    0.70000000    0.40000000    0.60000000
    0.70000000    0.40000000    0.70000000
    0.70000000    0.40000000    0.80000000
    0.70000000    0.40000000    0.90000000
    0.70000000    0.50000000    0.00000000
    0.70000000    0.50000000    0.10000000
    0.70000000    0.50000000    0.20000000
    0.70000000    0.50000000    0.30000000
    0.70000000    0.50000000    0.40000000
    0.70000000    0.50000000    0.50000000
    0.70000000    0.50000000    0.60000000
    0.70000000    0.50000000    0.70000000
    0.70000000    0.50000000    0.80000000
    0.70000000    0.50000000    0.90000000
    0.70000000    0.60000000    0.00000000
    0.70000000    0.60000000    0.10000000
    0.70000000    0.60000000    0.20000000
    0.70000000    0.60000000    0.30000000
    0.70000000    0.60000000    0.40000000
    0.70000000    0.60000000    0.50000000
    0.70000000    0.60000000    0.60000000
    0.70000000    0.60000000    0.70000000
    0.70000000    0.60000000    0.80000000
    0.70000000    0.60000000    0.90000000
    0.70000000    0.70000000    0.00000000
    0.70000000    0.70000000    0.10000000
    0.70000000    0.70000000    0.20000000
    0.70000000    0.70000000    0.30000000
    0.70000000    0.70000000    0.40000000
    0.70000000    0.70000000    0.50000000
    0.70000000    0.70000000    0.60000000
    0.70000000    0.70000000    0.70000000
    0.70000000    0.70000000    0.80000000
    0.70000000    0.70000000    0.90000000
    0.70000000    0.80000000    0.00000000
    0.70000000    0.80000000    0.10000000
    0.70000000    0.80000000    0.20000000
    0.70000000    0.80000000    0.30000000
    0.70000000    0.80000000    0.40000000
    0.70000000    0.80000000    0.50000000
    0.70000000    0.80000000    0.60000000
    0.70000000    0.80000000    0.70000000
    0.70000000    0.80000000    0.80000000
    0.70000000    0.80000000    0.90000000
    0.70000000    0.90000000    0.00000000
    0.70000000    0.90000000    0.10000000
    0.70000000    0.90000000    0.20000000
    0.70000000    0.90000000    0.30000000
    0.70000000    0.90000000    0.40000000
    0.70000000    0.90000000    0.50000000
    0.70000000    0.90000000    0.60000000
    0.70000000    0.90000000    0.70000000
    0.70000000    0.90000000    0.80000000
    0.70000000    0.90000000    0.90000000
    0.80000000    0.00000000    0.00000000
    0.80000000    0.00000000    0.10000000
    0.80000000    0.00000000    0.20000000
    0.80000000    0.00000000    0.30000000
    0.80000000    0.00000000    0.40000000
    0.80000000    0.00000000    0.50000000
    0.80000000    0.00000000    0.60000000
    0.80000000    0.00000000    0.70000000
    0.80000000    0.00000000    0.80000000
    0.80000000    0.00000000    0.90000000
    0.80000000    0.10000000    0.00000000
    0.80000000    0.10000000    0.10000000
    0.80000000    0.10000000    0.20000000
    0.80000000    0.10000000    0.30000000
    0.80000000    0.10000000    0.40000000
    0.80000000    0.10000000    0.50000000
    0.80000000    0.10000000    0.60000000
    0.80000000    0.10000000    0.70000000
    0.80000000    0.10000000    0.80000000
    0.80000000    0.10000000    0.90000000
    0.80000000    0.20000000    0.00000000
    0.80000000    0.20000000    0.10000000
    0.80000000    0.20000000    0.20000000
    0.80000000    0.20000000    0.30000000
    0.80000000    0.20000000    0.40000000
    0.80000000    0.20000000    0.50000000
    0.80000000    0.20000000    0.60000000
    0.80000000    0.20000000    0.70000000
    0.80000000    0.20000000    0.80000000
    0.80000000    0.20000000    0.90000000
    0.80000000    0.30000000    0.00000000
    0.80000000    0.30000000    0.10000000
    0.80000000    0.30000000    0.20000000
    0.80000000    0.30000000    0.30000000
    0.80000000    0.30000000    0.40000000
    0.80000000    0.30000000    0.50000000
    0.80000000    0.30000000    0.60000000
    0.80000000    0.30000000    0.70000000
    0.80000000    0.30000000    0.80000000
    0.80000000    0.30000000    0.90000000
    0.80000000    0.40000000    0.00000000
    0.80000000    0.40000000    0.10000000
    0.80000000    0.40000000    0.20000000
    0.80000000    0.40000000    0.30000000
    0.80000000    0.40000000    0.40000000
    0.80000000    0.40000000    0.50000000
    0.80000000    0.40000000    0.60000000
    0.80000000    0.40000000    0.70000000
    0.80000000    0.40000000    0.80000000
    0.80000000    0.40000000    0.90000000
    0.80000000    0.50000000    0.00000000
    0.80000000    0.50000000    0.10000000
    0.80000000    0.50000000    0.20000000
    0.80000000    0.50000000    0.30000000
    0.80000000    0.50000000    0.40000000
    0.80000000    0.50000000    0.50000000
    0.80000000    0.50000000    0.60000000
    0.80000000    0.50000000    0.70000000
    0.80000000    0.50000000    0.80000000
    0.80000000    0.50000000    0.90000000
    0.80000000    0.60000000    0.00000000
    0.80000000    0.60000000    0.10000000
    0.80000000    0.60000000    0.20000000
    0.80000000    0.60000000    0.30000000
    0.80000000    0.60000000    0.40000000
    0.80000000    0.60000000    0.50000000
    0.80000000    0.60000000    0.60000000
    0.80000000    0.60000000    0.70000000
    0.80000000    0.60000000    0.80000000
    0.80000000    0.60000000    0.90000000
    0.80000000    0.70000000    0.00000000
    0.80000000    0.70000000    0.10000000
    0.80000000    0.70000000    0.20000000
    0.80000000    0.70000000    0.30000000
    0.80000000    0.70000000    0.40000000
    0.80000000    0.70000000    0.50000000
    0.80000000    0.70000000    0.60000000
    0.80000000    0.70000000    0.70000000
    0.80000000    0.70000000    0.80000000
    0.80000000    0.70000000    0.90000000
    0.80000000    0.80000000    0.00000000
    0.80000000    0.80000000    0.10000000
    0.80000000    0.80000000    0.20000000
    0.80000000    0.80000000    0.30000000
    0.80000000    0.80000000    0.40000000
    0.80000000    0.80000000    0.50000000
    0.80000000    0.80000000    0.60000000
    0.80000000    0.80000000    0.70000000
    0.80000000    0.80000000    0.80000000
    0.80000000    0.80000000    0.90000000
    0.80000000    0.90000000    0.00000000
    0.80000000    0.90000000    0.10000000
    0.80000000    0.90000000    0.20000000
    0.80000000    0.90000000    0.30000000
    0.80000000    0.90000000    0.40000000
    0.80000000    0.90000000    0.50000000
    0.80000000    0.90000000    0.60000000
    0.80000000    0.90000000    0.70000000
    0.80000000    0.90000000    0.80000000
    0.80000000    0.90000000    0.90000000
    0.90000000    0.00000000    0.00000000
    0.90000000    0.00000000    0.10000000
    0.90000000    0.00000000    0.20000000
    0.90000000    0.00000000    0.30000000
    0.90000000    0.00000000    0.40000000
    0.90000000    0.00000000    0.50000000
    0.90000000    0.00000000    0.60000000
    0.90000000    0.00000000    0.70000000
    0.90000000    0.00000000    0.80000000
    0.90000000    0.00000000    0.90000000
    0.90000000    0.10000000    0.00000000
    0.90000000    0.10000000    0.10000000
    0.90000000    0.10000000    0.20000000
    0.90000000    0.10000000    0.30000000
    0.90000000    0.10000000    0.40000000
    0.90000000    0.10000000    0.50000000
    0.90000000    0.10000000    0.60000000
    0.90000000    0.10000000    0.70000000
    0.90000000    0.10000000    0.80000000
    0.90000000    0.10000000    0.90000000
    0.90000000    0.20000000    0.00000000
    0.90000000    0.20000000    0.10000000
    0.90000000    0.20000000    0.20000000
    0.90000000    0.20000000    0.30000000
    0.90000000    0.20000000    0.40000000
    0.90000000    0.20000000    0.50000000
    0.90000000    0.20000000    0.60000000
    0.90000000    0.20000000    0.70000000
    0.90000000    0.20000000    0.80000000
    0.90000000    0.20000000    0.90000000
    0.90000000    0.30000000    0.00000000
    0.90000000    0.30000000    0.10000000
    0.90000000    0.30000000    0.20000000
    0.90000000    0.30000000    0.30000000
    0.90000000    0.30000000    0.40000000
    0.90000000    0.30000000    0.50000000
    0.90000000    0.30000000    0.60000000
    0.90000000    0.30000000    0.70000000
    0.90000000    0.30000000    0.80000000
    0.90000000    0.30000000    0.90000000
    0.90000000    0.40000000    0.00000000
    0.90000000    0.40000000    0.10000000
    0.90000000    0.40000000    0.20000000
    0.90000000    0.40000000    0.30000000
    0.90000000    0.40000000    0.40000000
    0.90000000    0.40000000    0.50000000
    0.90000000    0.40000000    0.60000000
    0.90000000    0.40000000    0.70000000
    0.90000000    0.40000000    0.80000000
    0.90000000    0.40000000    0.90000000
    0.90000000    0.50000000    0.00000000
    0.90000000    0.50000000    0.10000000
    0.90000000    0.50000000    0.20000000
    0.90000000    0.50000000    0.30000000
    0.90000000    0.50000000    0.40000000
    0.90000000    0.50000000    0.50000000
    0.90000000    0.50000000    0.60000000
    0.90000000    0.50000000    0.70000000
    0.90000000    0.50000000    0.80000000
    0.90000000    0.50000000    0.90000000
    0.90000000    0.60000000    0.00000000
    0.90000000    0.60000000    0.10000000
    0.90000000    0.60000000    0.20000000
    0.90000000    0.60000000    0.30000000
    0.90000000    0.60000000    0.40000000
    0.90000000    0.60000000    0.50000000
    0.90000000    0.60000000    0.60000000
    0.90000000    0.60000000    0.70000000
    0.90000000    0.60000000    0.80000000
    0.90000000    0.60000000    0.90000000
    0.90000000    0.70000000    0.00000000
    0.90000000    0.70000000    0.10000000
    0.90000000    0.70000000    0.20000000
    0.90000000    0.70000000    0.30000000
    0.90000000    0.70000000    0.40000000
    0.90000000    0.70000000    0.50000000
    0.90000000    0.70000000    0.60000000
    0.90000000    0.70000000    0.70000000
    0.90000000    0.70000000    0.80000000
    0.90000000    0.70000000    0.90000000
    0.90000000    0.80000000    0.00000000
    0.90000000    0.80000000    0.10000000
    0.90000000    0.80000000    0.20000000
    0.90000000    0.80000000    0.30000000
    0.90000000    0.80000000    0.40000000
    0.90000000    0.80000000    0.50000000
    0.90000000    0.80000000    0.60000000
    0.90000000    0.80000000    0.70000000
    0.90000000    0.80000000    0.80000000
    0.90000000    0.80000000    0.90000000
    0.90000000    0.90000000    0.00000000
    0.90000000    0.90000000    0.10000000
    0.90000000    0.90000000    0.20000000
    0.90000000    0.90000000    0.30000000
    0.90000000    0.90000000    0.40000000
    0.90000000    0.90000000    0.50000000
    0.90000000    0.90000000    0.60000000
    0.90000000    0.90000000    0.70000000
    0.90000000    0.90000000    0.80000000
    0.90000000    0.90000000    0.90000000
end kpoints

begin projections
     8
   0.25000    0.25000    0.25000     0  1  1
    0.0000000  0.0000000  1.0000000   1.0000000  0.0000000  0.0000000    1.00
   0.25000    0.25000    0.25000     1  1  1
    0.0000000  0.0000000  1.0000000   1.0000000  0.0000000  0.0000000    1.00
   0.25000    0.25000    0.25000     1  2  1
    0.0000000  0.0000000  1.0000000   1.0000000  0.0000000  0.0000000    1.00
   0.25000    0.25000    0.25000     1  3  1
    0.0000000  0.0000000  1.0000000   1.0000000  0.0000000  0.0000000    1.00
   0.00000    0.00000    0.00000     1  1  1
    0.0000000  0.0000000  1.0000000   1.0000000  0.0000000  0.0000000    1.00
   0.00000    0.00000    0.00000     1  2  1
    0.0000000  0.0000000  1.0000000   1.0000000  0.0000000  0.0000000    1.00
   0.00000    0.00000    0.00000     1  3  1
    0.0000000  0.0000000  1.0000000   1.0000000  0.0000000  0.0000000    1.00
   0.00000    0.00000    0.00000     0  1  1
    0.0000000  0.0000000  1.0000000   1.0000000  0.0000000  0.0000000    1.00
end projections

begin nnkpts
   8
     1     2      0   0   0
     1    11      0   0   0
     1   101      0   0   0
     1   112      0   0   0
     1    10      0   0  -1
     1    91      0  -1   0
     1   901     -1   0   0
     1  1000     -1  -1  -1
     2     1      0   0   0
     2     3      0   0   0
     2    12      0   0   0
     2   102      0   0   0
     2   113      0   0   0
     2    92      0  -1   0
     2   902     -1   0   0
     2   991     -1  -1   0
     3     2      0   0   0
     3     4      0   0   0
     3    13      0   0   0
     3   103      0   0   0
     3   114      0   0   0
     3    93      0  -1   0
     3   903     -1   0   0
     3   992     -1  -1   0
     4     3      0   0   0
     4     5      0   0   0
     4    14      0   0   0
     4   104      0   0   0
     4   115      0   0   0
     4    94      0  -1   0
     4   904     -1   0   0
     4   993     -1  -1   0
     5     4      0   0   0
     5     6      0   0   0
     5    15      0   0   0
     5   105      0   0   0
     5   116      0   0   0
     5    95      0  -1   0
     5   905     -1   0   0
     5   994     -1  -1   0
     6     5      0   0   0
     6     7      0   0   0
     6    16      0   0   0
     6   106      0   0   0
     6   117      0   0   0
     6    96      0  -1   0
     6   906     -1   0   0
     6   995     -1  -1   0
     7     6      0   0   0
     7     8      0   0   0
     7    17      0   0   0
     7   107      0   0   0
     7   118      0   0   0
     7    97      0  -1   0
     7   907     -1   0   0
     7   996     -1  -1   0
     8     7      0   0   0
     8     9      0   0   0
     8    18      0   0   0
     8   108      0   0   0
     8   119      0   0   0
     8    98      0  -1   0
     8   908     -1   0   0
     8   997     -1  -1   0
     9     8      0   0   0
     9    10      0   0   0
     9    19      0   0   0
     9   109      0   0   0
     9   120      0   0   0
     9    99      0  -1   0
     9   909     -1   0   0
     9   998     -1  -1   0
    10     9      0   0   0
    10    20      0   0   0
    10   110      0   0   0
    10     1      0   0   1
    10   111      0   0   1
    10   100      0  -1   0
    10   910     -1   0   0
    10   999     -1  -1   0
    11     1      0   0   0
    11    12      0   0   0
    11    21      0   0   0
    11   111      0   0   0
    11   122      0   0   0
    11    20      0   0  -1
    11   911     -1   0   0
    11   910     -1   0  -1
    12     2      0   0   0
    12    11      0   0   0
    12    13      0   0   0
    12    22      0   0   0
    12   112      0   0   0
    12   123      0   0   0
    12   901     -1   0   0
    12   912     -1   0   0
    13     3      0   0   0
    13    12      0   0   0
    13    14      0   0   0
    13    23      0   0   0
    13   113      0   0   0
    13   124      0   0   0
    13   902     -1   0   0
    13   913     -1   0   0
    14     4      0   0   0
    14    13      0   0   0
    14    15      0   0   0
    14    24      0   0   0
    14   114      0   0   0
    14   125      0   0   0
    14   903     -1   0   0
    14   914     -1   0   0
    15     5      0   0   0
    15    14      0   0   0
    15    16      0   0   0
    15    25      0   0   0
    15   115      0   0   0
    15   126      0   0   0
    15   904     -1   0   0
    15   915     -1   0   0
    16     6      0   0   0
    16    15      0   0   0
    16    17      0   0   0
    16    26      0   0   0
    16   116      0   0   0
    16   127      0   0   0
    16   905     -1   0   0
    16   916     -1   0   0
    17     7      0   0   0
    17    16      0   0   0
    17    18      0   0   0
    17    27      0   0   0
    17   117      0   0   0
    17   128      0   0   0
    17   906     -1   0   0
    17   917     -1   0   0
    18     8      0   0   0
    18    17      0   0   0
    18    19      0   0   0
    18    28      0   0   0
    18   118      0   0   0
    18   129      0   0   0
    18   907     -1   0   0
    18   918     -1   0   0
    19     9      0   0   0
    19    18      0   0   0
    19    20      0   0   0
    19    29      0   0   0
    19   119      0   0   0
    19   130      0   0   0
    19   908     -1   0   0
    19   919     -1   0   0
    20    10      0   0   0
    20    19      0   0   0
    20    30      0   0   0
    20   120      0   0   0
    20    11      0   0   1
    20   121      0   0   1
    20   909     -1   0   0
    20   920     -1   0   0
    21    11      0   0   0
    21    22      0   0   0
    21    31      0   0   0
    21   121      0   0   0
    21   132      0   0   0
    21    30      0   0  -1
    21   921     -1   0   0
    21   920     -1   0  -1
    22    12      0   0   0
    22    21      0   0   0
    22    23      0   0   0
    22    32      0   0   0
    22   122      0   0   0
    22   133      0   0   0
    22   911     -1   0   0
    22   922     -1   0   0
    23    13      0   0   0
    23    22      0   0   0
    23    24      0   0   0
    23    33      0   0   0
    23   123      0   0   0
    23   134      0   0   0
    23   912     -1   0   0
    23   923     -1   0   0
    24    14      0   0   0
    24    23      0   0   0
    24    25      0   0   0
    24    34      0   0   0
    24   124      0   0   0
    24   135      0   0   0
    24   913     -1   0   0
    24   924     -1   0   0
    25    15      0   0   0
    25    24      0   0   0
    25    26      0   0   0
    25    35      0   0   0
    25   125      0   0   0
    25   136      0   0   0
    25   914     -1   0   0
    25   925     -1   0   0
    26    16      0   0   0
    26    25      0   0   0
    26    27      0   0   0
    26    36      0   0   0
    26   126      0   0   0
    26   137      0   0   0
    26   915     -1   0   0
    26   926     -1   0   0
    27    17      0   0   0
    27    26      0   0   0
    27    28      0   0   0
    27    37      0   0   0
    27   127      0   0   0
    27   138      0   0   0
    27   916     -1   0   0
    27   927     -1   0   0
    28    18      0   0   0
    28    27      0   0   0
    28    29      0   0   0
    28    38      0   0   0
    28   128      0   0   0
    28   139      0   0   0
    28   917     -1   0   0
    28   928     -1   0   0
    29    19      0   0   0
    29    28      0   0   0
    29    30      0   0   0
    29    39      0   0   0
    29   129      0   0   0
    29   140      0   0   0
    29   918     -1   0   0
    29   929     -1   0   0
    30    20      0   0   0
    30    29      0   0   0
    30    40      0   0   0
    30   130      0   0   0
    30    21      0   0   1
    30   131      0   0   1
    30   919     -1   0   0
    30   930     -1   0   0
    31    21      0   0   0
    31    32      0   0   0
    31    41      0   0   0
    31   131      0   0   0
    31   142      0   0   0
    31    40      0   0  -1
    31   931     -1   0   0
    31   930     -1   0  -1
    32    22      0   0   0
    32    31      0   0   0
    32    33      0   0   0
    32    42      0   0   0
    32   132      0   0   0
    32   143      0   0   0
    32   921     -1   0   0
    32   932     -1   0   0
    33    23      0   0   0
    33    32      0   0   0
    33    34      0   0   0
    33    43      0   0   0
    33   133      0   0   0
    33   144      0   0   0
    33   922     -1   0   0
    33   933     -1   0   0
    34    24      0   0   0
    34    33      0   0   0
    34    35      0   0   0
    34    44      0   0   0
    34   134      0   0   0
    34   145      0   0   0
    34   923     -1   0   0
    34   934     -1   0   0
    35    25      0   0   0
    35    34      0   0   0
    35    36      0   0   0
    35    45      0   0   0
    35   135      0   0   0
    35   146      0   0   0
    35   924     -1   0   0
    35   935     -1   0   0
    36    26      0   0   0
    36    35      0   0   0
    36    37      0   0   0
    36    46      0   0   0
    36   136      0   0   0
    36   147      0   0   0
    36   925     -1   0   0
    36   936     -1   0   0
    37    27      0   0   0
    37    36      0   0   0
    37    38      0   0   0
    37    47      0   0   0
    37   137      0   0   0
    37   148      0   0   0
    37   926     -1   0   0
    37   937     -1   0   0
    38    28      0   0   0
    38    37      0   0   0
    38    39      0   0   0
    38    48      0   0   0
    38   138      0   0   0
    38   149      0   0   0
    38   927     -1   0   0
    38   938     -1   0   0
    39    29      0   0   0
    39    38      0   0   0
    39    40      0   0   0
    39    49      0   0   0
    39   139      0   0   0
    39   150      0   0   0
    39   928     -1   0   0
    39   939     -1   0   0
    40    30      0   0   0
    40    39      0   0   0
    40    50      0   0   0
    40   140      0   0   0
    40    31      0   0   1
    40   141      0   0   1
    40   929     -1   0   0
    40   940     -1   0   0
    41    31      0   0   0
    41    42      0   0   0
    41    51      0   0   0
    41   141      0   0   0
    41   152      0   0   0
    41    50      0   0  -1
    41   941     -1   0   0
    41   940     -1   0  -1
    42    32      0   0   0
    42    41      0   0   0
    42    43      0   0   0
    42    52      0   0   0
    42   142      0   0   0
    42   153      0   0   0
    42   931     -1   0   0
    42   942     -1   0   0
    43    33      0   0   0
    43    42      0   0   0
    43    44      0   0   0
    43    53      0   0   0
    43   143      0   0   0
    43   154      0   0   0
    43   932     -1   0   0
    43   943     -1   0   0
    44    34      0   0   0
    44    43      0   0   0
    44    45      0   0   0
    44    54      0   0   0
    44   144      0   0   0
    44   155      0   0   0
    44   933     -1   0   0
    44   944     -1   0   0
    45    35      0   0   0
    45    44      0   0   0
    45    46      0   0   0
    45    55      0   0   0
    45   145      0   0   0
    45   156      0   0   0
    45   934     -1   0   0
    45   945     -1   0   0
    46    36      0   0   0
    46    45      0   0   0
    46    47      0   0   0
    46    56      0   0   0
    46   146      0   0   0
    46   157      0   0   0
    46   935     -1   0   0
    46   946     -1   0   0
    47    37      0   0   0
    47    46      0   0   0
    47    48      0   0   0
    47    57      0   0   0
    47   147      0   0   0
    47   158      0   0   0
    47   936     -1   0   0
    47   947     -1   0   0
    48    38      0   0   0
    48    47      0   0   0
    48    49      0   0   0
    48    58      0   0   0
    48   148      0   0   0
    48   159      0   0   0
    48   937     -1   0   0
    48   948     -1   0   0
    49    39      0   0   0
    49    48      0   0   0
    49    50      0   0   0
    49    59      0   0   0
    49   149      0   0   0
    49   160      0   0   0
    49   938     -1   0   0
    49   949     -1   0   0
    50    40      0   0   0
    50    49      0   0   0
    50    60      0   0   0
    50   150      0   0   0
    50    41      0   0   1
    50   151      0   0   1
    50   939     -1   0   0
    50   950     -1   0   0
    51    41      0   0   0
    51    52      0   0   0
    51    61      0   0   0
    51   151      0   0   0
    51   162      0   0   0
    51    60      0   0  -1
    51   951     -1   0   0
    51   950     -1   0  -1
    52    42      0   0   0
    52    51      0   0   0
    52    53      0   0   0
    52    62      0   0   0
    52   152      0   0   0
    52   163      0   0   0
    52   941     -1   0   0
    52   952     -1   0   0
    53    43      0   0   0
    53    52      0   0   0
    53    54      0   0   0
    53    63      0   0   0
    53   153      0   0   0
    53   164      0   0   0
    53   942     -1   0   0
    53   953     -1   0   0
    54    44      0   0   0
    54    53      0   0   0
    54    55      0   0   0
    54    64      0   0   0
    54   154      0   0   0
    54   165      0   0   0
    54   943     -1   0   0
    54   954     -1   0   0
    55    45      0   0   0
    55    54      0   0   0
    55    56      0   0   0
    55    65      0   0   0
    55   155      0   0   0
    55   166      0   0   0
    55   944     -1   0   0
    55   955     -1   0   0
    56    46      0   0   0
    56    55      0   0   0
    56    57      0   0   0
    56    66      0   0   0
    56   156      0   0   0
    56   167      0   0   0
    56   945     -1   0   0
    56   956     -1   0   0
    57    47      0   0   0
    57    56      0   0   0
    57    58      0   0   0
    57    67      0   0   0
    57   157      0   0   0
    57   168      0   0   0
    57   946     -1   0   0
    57   957     -1   0   0
    58    48      0   0   0
    58    57      0   0   0
    58    59      0   0   0
    58    68      0   0   0
    58   158      0   0   0
    58   169      0   0   0
    58   947     -1   0   0
    58   958     -1   0   0
    59    49      0   0   0
    59    58      0   0   0
    59    60      0   0   0
    59    69      0   0   0
    59   159      0   0   0
    59   170      0   0   0
    59   948     -1   0   0
    59   959     -1   0   0
    60    50      0   0   0
    60    59      0   0   0
    60    70      0   0   0
    60   160      0   0   0
    60    51      0   0   1
    60   161      0   0   1
    60   949     -1   0   0
    60   960     -1   0   0
    61    51      0   0   0
    61    62      0   0   0
    61    71      0   0   0
    61   161      0   0   0
    61   172      0   0   0
    61    70      0   0  -1
    61   961     -1   0   0
    61   960     -1   0  -1
    62    52      0   0   0
    62    61      0   0   0
    62    63      0   0   0
    62    72      0   0   0
    62   162      0   0   0
    62   173      0   0   0
    62   951     -1   0   0
    62   962     -1   0   0
    63    53      0   0   0
    63    62      0   0   0
    63    64      0   0   0
    63    73      0   0   0
    63   163      0   0   0
    63   174      0   0   0
    63   952     -1   0   0
    63   963     -1   0   0
    64    54      0   0   0
    64    63      0   0   0
    64    65      0   0   0
    64    74      0   0   0
    64   164      0   0   0
    64   175      0   0   0
    64   953     -1   0   0
    64   964     -1   0   0
    65    55      0   0   0
    65    64      0   0   0
    65    66      0   0   0
    65    75      0   0   0
    65   165      0   0   0
    65   176      0   0   0
    65   954     -1   0   0
    65   965     -1   0   0
    66    56      0   0   0
    66    65      0   0   0
    66    67      0   0   0
    66    76      0   0   0
    66   166      0   0   0
    66   177      0   0   0
    66   955     -1   0   0
    66   966     -1   0   0
    67    57      0   0   0
    67    66      0   0   0
    67    68      0   0   0
    67    77      0   0   0
    67   167      0   0   0
    67   178      0   0   0
    67   956     -1   0   0
    67   967     -1   0   0
    68    58      0   0   0
    68    67      0   0   0
    68    69      0   0   0
    68    78      0   0   0
    68   168      0   0   0
    68   179      0   0   0
    68   957     -1   0   0
    68   968     -1   0   0
    69    59      0   0   0
    69    68      0   0   0
    69    70      0   0   0
    69    79      0   0   0
    69   169      0   0   0
    69   180      0   0   0
    69   958     -1   0   0
    69   969     -1   0   0
    70    60      0   0   0
    70    69      0   0   0
    70    80      0   0   0
    70   170      0   0   0
    70    61      0   0   1
    70   171      0   0   1
    70   959     -1   0   0
    70   970     -1   0   0
    71    61      0   0   0
    71    72      0   0   0
    71    81      0   0   0
    71   171      0   0   0
    71   182      0   0   0
    71    80      0   0  -1
    71   971     -1   0   0
    71   970     -1   0  -1
    72    62      0   0   0
    72    71      0   0   0
    72    73      0   0   0
    72    82      0   0   0
    72   172      0   0   0
    72   183      0   0   0
    72   961     -1   0   0
    72   972     -1   0   0
    73    63      0   0   0
    73    72      0   0   0
    73    74      0   0   0
    73    83      0   0   0
    73   173      0   0   0
    73   184      0   0   0
    73   962     -1   0   0
    73   973     -1   0   0
    74    64      0   0   0
    74    73      0   0   0
    74    75      0   0   0
    74    84      0   0   0
    74   174      0   0   0
    74   185      0   0   0
    74   963     -1   0   0
    74   974     -1   0   0
    75    65      0   0   0
    75    74      0   0   0
    75    76      0   0   0
    75    85      0   0   0
    75   175      0   0   0
    75   186      0   0   0
    75   964     -1   0   0
    75   975     -1   0   0
    76    66      0   0   0
    76    75      0   0   0
    76    77      0   0   0
    76    86      0   0   0
    76   176      0   0   0
    76   187      0   0   0
    76   965     -1   0   0
    76   976     -1   0   0
    77    67      0   0   0
    77    76      0   0   0
    77    78      0   0   0
    77    87      0   0   0
    77   177      0   0   0
    77   188      0   0   0
    77   966     -1   0   0
    77   977     -1   0   0
    78    68      0   0   0
    78    77      0   0   0
    78    79      0   0   0
    78    88      0   0   0
    78   178      0   0   0
    78   189      0   0   0
    78   967     -1   0   0
    78   978     -1   0   0
    79    69      0   0   0
    79    78      0   0   0
    79    80      0   0   0
    79    89      0   0   0
    79   179      0   0   0
    79   190      0   0   0
    79   968     -1   0   0
    79   979     -1   0   0
    80    70      0   0   0
    80    79      0   0   0
    80    90      0   0   0
    80   180      0   0   0
    80    71      0   0   1
    80   181      0   0   1
    80   969     -1   0   0
    80   980     -1   0   0
    81    71      0   0   0
    81    82      0   0   0
    81    91      0   0   0
    81   181      0   0   0
    81   192      0   0   0
    81    90      0   0  -1
    81   981     -1   0   0
    81   980     -1   0  -1
    82    72      0   0   0
    82    81      0   0   0
    82    83      0   0   0
    82    92      0   0   0
    82   182      0   0   0
    82   193      0   0   0
    82   971     -1   0   0
    82   982     -1   0   0
    83    73      0   0   0
    83    82      0   0   0
    83    84      0   0   0
    83    93      0   0   0
    83   183      0   0   0
    83   194      0   0   0
    83   972     -1   0   0
    83   983     -1   0   0
    84    74      0   0   0
    84    83      0   0   0
    84    85      0   0   0
    84    94      0   0   0
    84   184      0   0   0
    84   195      0   0   0
    84   973     -1   0   0
    84   984     -1   0   0
    85    75      0   0   0
    85    84      0   0   0
    85    86      0   0   0
    85    95      0   0   0
    85   185      0   0   0
    85   196      0   0   0
    85   974     -1   0   0
    85   985     -1   0   0
    86    76      0   0   0
    86    85      0   0   0
    86    87      0   0   0
    86    96      0   0   0
    86   186      0   0   0
    86   197      0   0   0
    86   975     -1   0   0
    86   986     -1   0   0
    87    77      0   0   0
    87    86      0   0   0
    87    88      0   0   0
    87    97      0   0   0
    87   187      0   0   0
    87   198      0   0   0
    87   976     -1   0   0
    87   987     -1   0   0
    88    78      0   0   0
    88    87      0   0   0
    88    89      0   0   0
    88    98      0   0   0
    88   188      0   0   0
    88   199      0   0   0
    88   977     -1   0   0
    88   988     -1   0   0
    89    79      0   0   0
    89    88      0   0   0
    89    90      0   0   0
    89    99      0   0   0
    89   189      0   0   0
    89   200      0   0   0
    89   978     -1   0   0
    89   989     -1   0   0
    90    80      0   0   0
    90    89      0   0   0
    90   100      0   0   0
    90   190      0   0   0
    90    81      0   0   1
    90   191      0   0   1
    90   979     -1   0   0
    90   990     -1   0   0
    91    81      0   0   0
    91    92      0   0   0
    91   191      0   0   0
    91     1      0   1   0
    91   102      0   1   0
    91   100      0   0  -1
    91   991     -1   0   0
    91   990     -1   0  -1
    92    82      0   0   0
    92    91      0   0   0
    92    93      0   0   0
    92   192      0   0   0
    92     2      0   1   0
    92   103      0   1   0
    92   981     -1   0   0
    92   992     -1   0   0
    93    83      0   0   0
    93    92      0   0   0
    93    94      0   0   0
    93   193      0   0   0
    93     3      0   1   0
    93   104      0   1   0
    93   982     -1   0   0
    93   993     -1   0   0
    94    84      0   0   0
    94    93      0   0   0
    94    95      0   0   0
    94   194      0   0   0
    94     4      0   1   0
    94   105      0   1   0
    94   983     -1   0   0
    94   994     -1   0   0
    95    85      0   0   0
    95    94      0   0   0
    95    96      0   0   0
    95   195      0   0   0
    95     5      0   1   0
    95   106      0   1   0
    95   984     -1   0   0
    95   995     -1   0   0
    96    86      0   0   0
    96    95      0   0   0
    96    97      0   0   0
    96   196      0   0   0
    96     6      0   1   0
    96   107      0   1   0
    96   985     -1   0   0
    96   996     -1   0   0
    97    87      0   0   0
    97    96      0   0   0
    97    98      0   0   0
    97   197      0   0   0
    97     7      0   1   0
    97   108      0   1   0
    97   986     -1   0   0
    97   997     -1   0   0
    98    88      0   0   0
    98    97      0   0   0
    98    99      0   0   0
    98   198      0   0   0
    98     8      0   1   0
    98   109      0   1   0
    98   987     -1   0   0
    98   998     -1   0   0
    99    89      0   0   0
    99    98      0   0   0
    99   100      0   0   0
    99   199      0   0   0
    99     9      0   1   0
    99   110      0   1   0
    99   988     -1   0   0
    99   999     -1   0   0
   100    90      0   0   0
   100    99      0   0   0
   100   200      0   0   0
   100    10      0   1   0
   100    91      0   0   1
   100   989     -1   0   0
   100  1000     -1   0   0
   100   101      0   1   1
   101     1      0   0   0
   101   102      0   0   0
   101   111      0   0   0
   101   201      0   0   0
   101   212      0   0   0
   101   110      0   0  -1
   101   191      0  -1   0
   101   100      0  -1  -1
   102     2      0   0   0
   102   101      0   0   0
   102   103      0   0   0
   102   112      0   0   0
   102   202      0   0   0
   102   213      0   0   0
   102    91      0  -1   0
   102   192      0  -1   0
   103     3      0   0   0
   103   102      0   0   0
   103   104      0   0   0
   103   113      0   0   0
   103   203      0   0   0
   103   214      0   0   0
   103    92      0  -1   0
   103   193      0  -1   0
   104     4      0   0   0
   104   103      0   0   0
   104   105      0   0   0
   104   114      0   0   0
   104   204      0   0   0
   104   215      0   0   0
   104    93      0  -1   0
   104   194      0  -1   0
   105     5      0   0   0
   105   104      0   0   0
   105   106      0   0   0
   105   115      0   0   0
   105   205      0   0   0
   105   216      0   0   0
   105    94      0  -1   0
   105   195      0  -1   0
   106     6      0   0   0
   106   105      0   0   0
   106   107      0   0   0
   106   116      0   0   0
   106   206      0   0   0
   106   217      0   0   0
   106    95      0  -1   0
   106   196      0  -1   0
   107     7      0   0   0
   107   106      0   0   0
   107   108      0   0   0
   107   117      0   0   0
   107   207      0   0   0
   107   218      0   0   0
   107    96      0  -1   0
   107   197      0  -1   0
   108     8      0   0   0
   108   107      0   0   0
   108   109      0   0   0
   108   118      0   0   0
   108   208      0   0   0
   108   219      0   0   0
   108    97      0  -1   0
   108   198      0  -1   0
   109     9      0   0   0
   109   108      0   0   0
   109   110      0   0   0
   109   119      0   0   0
   109   209      0   0   0
   109   220      0   0   0
   109    98      0  -1   0
   109   199      0  -1   0
   110    10      0   0   0
   110   109      0   0   0
   110   120      0   0   0
   110   210      0   0   0
   110   101      0   0   1
   110   211      0   0   1
   110    99      0  -1   0
   110   200      0  -1   0
   111    11      0   0   0
   111   101      0   0   0
   111   112      0   0   0
   111   121      0   0   0
   111   211      0   0   0
   111   222      0   0   0
   111    10      0   0  -1
   111   120      0   0  -1
   112     1      0   0   0
   112    12      0   0   0
   112   102      0   0   0
   112   111      0   0   0
   112   113      0   0   0
   112   122      0   0   0
   112   212      0   0   0
   112   223      0   0   0
   113     2      0   0   0
   113    13      0   0   0
   113   103      0   0   0
   113   112      0   0   0
   113   114      0   0   0
   113   123      0   0   0
   113   213      0   0   0
   113   224      0   0   0
   114     3      0   0   0
   114    14      0   0   0
   114   104      0   0   0
   114   113      0   0   0
   114   115      0   0   0
   114   124      0   0   0
   114   214      0   0   0
   114   225      0   0   0
   115     4      0   0   0
   115    15      0   0   0
   115   105      0   0   0
   115   114      0   0   0
   115   116      0   0   0
   115   125      0   0   0
   115   215      0   0   0
   115   226      0   0   0
   116     5      0   0   0
   116    16      0   0   0
   116   106      0   0   0
   116   115      0   0   0
   116   117      0   0   0
   116   126      0   0   0
   116   216      0   0   0
   116   227      0   0   0
   117     6      0   0   0
   117    17      0   0   0
   117   107      0   0   0
   117   116      0   0   0
   117   118      0   0   0
   117   127      0   0   0
   117   217      0   0   0
   117   228      0   0   0
   118     7      0   0   0
   118    18      0   0   0
   118   108      0   0   0
   118   117      0   0   0
   118   119      0   0   0
   118   128      0   0   0
   118   218      0   0   0
   118   229      0   0   0
   119     8      0   0   0
   119    19      0   0   0
   119   109      0   0   0
   119   118      0   0   0
   119   120      0   0   0
   119   129      0   0   0
   119   219      0   0   0
   119   230      0   0   0
   120     9      0   0   0
   120    20      0   0   0
   120   110      0   0   0
   120   119      0   0   0
   120   130      0   0   0
   120   220      0   0   0
   120   111      0   0   1
   120   221      0   0   1
   121    21      0   0   0
   121   111      0   0   0
   121   122      0   0   0
   121   131      0   0   0
   121   221      0   0   0
   121   232      0   0   0
   121    20      0   0  -1
   121   130      0   0  -1
   122    11      0   0   0
   122    22      0   0   0
   122   112      0   0   0
   122   121      0   0   0
   122   123      0   0   0
   122   132      0   0   0
   122   222      0   0   0
   122   233      0   0   0
   123    12      0   0   0
   123    23      0   0   0
   123   113      0   0   0
   123   122      0   0   0
   123   124      0   0   0
   123   133      0   0   0
   123   223      0   0   0
   123   234      0   0   0
   124    13      0   0   0
   124    24      0   0   0
   124   114      0   0   0
   124   123      0   0   0
   124   125      0   0   0
   124   134      0   0   0
   124   224      0   0   0
   124   235      0   0   0
   125    14      0   0   0
   125    25      0   0   0
   125   115      0   0   0
   125   124      0   0   0
   125   126      0   0   0
   125   135      0   0   0
   125   225      0   0   0
   125   236      0   0   0
   126    15      0   0   0
   126    26      0   0   0
   126   116      0   0   0
   126   125      0   0   0
   126   127      0   0   0
   126   136      0   0   0
   126   226      0   0   0
   126   237      0   0   0
   127    16      0   0   0
   127    27      0   0   0
   127   117      0   0   0
   127   126      0   0   0
   127   128      0   0   0
   127   137      0   0   0
   127   227      0   0   0
   127   238      0   0   0
   128    17      0   0   0
   128    28      0   0   0
   128   118      0   0   0
   128   127      0   0   0
   128   129      0   0   0
   128   138      0   0   0
   128   228      0   0   0
   128   239      0   0   0
   129    18      0   0   0
   129    29      0   0   0
   129   119      0   0   0
   129   128      0   0   0
   129   130      0   0   0
   129   139      0   0   0
   129   229      0   0   0
   129   240      0   0   0
   130    19      0   0   0
   130    30      0   0   0
   130   120      0   0   0
   130   129      0   0   0
   130   140      0   0   0
   130   230      0   0   0
   130   121      0   0   1
   130   231      0   0   1
   131    31      0   0   0
   131   121      0   0   0
   131   132      0   0   0
   131   141      0   0   0
   131   231      0   0   0
   131   242      0   0   0
   131    30      0   0  -1
   131   140      0   0  -1
   132    21      0   0   0
   132    32      0   0   0
   132   122      0   0   0
   132   131      0   0   0
   132   133      0   0   0
   132   142      0   0   0
   132   232      0   0   0
   132   243      0   0   0
   133    22      0   0   0
   133    33      0   0   0
   133   123      0   0   0
   133   132      0   0   0
   133   134      0   0   0
   133   143      0   0   0
   133   233      0   0   0
   133   244      0   0   0
   134    23      0   0   0
   134    34      0   0   0
   134   124      0   0   0
   134   133      0   0   0
   134   135      0   0   0
   134   144      0   0   0
   134   234      0   0   0
   134   245      0   0   0
   135    24      0   0   0
   135    35      0   0   0
   135   125      0   0   0
   135   134      0   0   0
   135   136      0   0   0
   135   145      0   0   0
   135   235      0   0   0
   135   246      0   0   0
   136    25      0   0   0
   136    36      0   0   0
   136   126      0   0   0
   136   135      0   0   0
   136   137      0   0   0
   136   146      0   0   0
   136   236      0   0   0
   136   247      0   0   0
   137    26      0   0   0
   137    37      0   0   0
   137   127      0   0   0
   137   136      0   0   0
   137   138      0   0   0
   137   147      0   0   0
   137   237      0   0   0
   137   248      0   0   0
   138    27      0   0   0
   138    38      0   0   0
   138   128      0   0   0
   138   137      0   0   0
   138   139      0   0   0
   138   148      0   0   0
   138   238      0   0   0
   138   249      0   0   0
   139    28      0   0   0
   139    39      0   0   0
   139   129      0   0   0
   139   138      0   0   0
   139   140      0   0   0
   139   149      0   0   0
   139   239      0   0   0
   139   250      0   0   0
   140    29      0   0   0
   140    40      0   0   0
   140   130      0   0   0
   140   139      0   0   0
   140   150      0   0   0
   140   240      0   0   0
   140   131      0   0   1
   140   241      0   0   1
   141    41      0   0   0
   141   131      0   0   0
   141   142      0   0   0
   141   151      0   0   0
   141   241      0   0   0
   141   252      0   0   0
   141    40      0   0  -1
   141   150      0   0  -1
   142    31      0   0   0
   142    42      0   0   0
   142   132      0   0   0
   142   141      0   0   0
   142   143      0   0   0
   142   152      0   0   0
   142   242      0   0   0
   142   253      0   0   0
   143    32      0   0   0
   143    43      0   0   0
   143   133      0   0   0
   143   142      0   0   0
   143   144      0   0   0
   143   153      0   0   0
   143   243      0   0   0
   143   254      0   0   0
   144    33      0   0   0
   144    44      0   0   0
   144   134      0   0   0
   144   143      0   0   0
   144   145      0   0   0
   144   154      0   0   0
   144   244      0   0   0
   144   255      0   0   0
   145    34      0   0   0
   145    45      0   0   0
   145   135      0   0   0
   145   144      0   0   0
   145   146      0   0   0
   145   155      0   0   0
   145   245      0   0   0
   145   256      0   0   0
   146    35      0   0   0
   146    46      0   0   0
   146   136      0   0   0
   146   145      0   0   0
   146   147      0   0   0
   146   156      0   0   0
   146   246      0   0   0
   146   257      0   0   0
   147    36      0   0   0
   147    47      0   0   0
   147   137      0   0   0
   147   146      0   0   0
   147   148      0   0   0
   147   157      0   0   0
   147   247      0   0   0
   147   258      0   0   0
   148    37      0   0   0
   148    48      0   0   0
   148   138      0   0   0
   148   147      0   0   0
   148   149      0   0   0
   148   158      0   0   0
   148   248      0   0   0
   148   259      0   0   0
   149    38      0   0   0
   149    49      0   0   0
   149   139      0   0   0
   149   148      0   0   0
   149   150      0   0   0
   149   159      0   0   0
   149   249      0   0   0
   149   260      0   0   0
   150    39      0   0   0
   150    50      0   0   0
   150   140      0   0   0
   150   149      0   0   0
   150   160      0   0   0
   150   250      0   0   0
   150   141      0   0   1
   150   251      0   0   1
   151    51      0   0   0
   151   141      0   0   0
   151   152      0   0   0
   151   161      0   0   0
   151   251      0   0   0
   151   262      0   0   0
   151    50      0   0  -1
   151   160      0   0  -1
   152    41      0   0   0
   152    52      0   0   0
   152   142      0   0   0
   152   151      0   0   0
   152   153      0   0   0
   152   162      0   0   0
   152   252      0   0   0
   152   263      0   0   0
   153    42      0   0   0
   153    53      0   0   0
   153   143      0   0   0
   153   152      0   0   0
   153   154      0   0   0
   153   163      0   0   0
   153   253      0   0   0
   153   264      0   0   0
   154    43      0   0   0
   154    54      0   0   0
   154   144      0   0   0
   154   153      0   0   0
   154   155      0   0   0
   154   164      0   0   0
   154   254      0   0   0
   154   265      0   0   0
   155    44      0   0   0
   155    55      0   0   0
   155   145      0   0   0
   155   154      0   0   0
   155   156      0   0   0
   155   165      0   0   0
   155   255      0   0   0
   155   266      0   0   0
   156    45      0   0   0
   156    56      0   0   0
   156   146      0   0   0
   156   155      0   0   0
   156   157      0   0   0
   156   166      0   0   0
   156   256      0   0   0
   156   267      0   0   0
   157    46      0   0   0
   157    57      0   0   0
   157   147      0   0   0
   157   156      0   0   0
   157   158      0   0   0
   157   167      0   0   0
   157   257      0   0   0
   157   268      0   0   0
   158    47      0   0   0
   158    58      0   0   0
   158   148      0   0   0
   158   157      0   0   0
   158   159      0   0   0
   158   168      0   0   0
   158   258      0   0   0
   158   269      0   0   0
   159    48      0   0   0
   159    59      0   0   0
   159   149      0   0   0
   159   158      0   0   0
   159   160      0   0   0
   159   169      0   0   0
[...]
   912   812      0   0   0
   912   902      0   0   0
   912   911      0   0   0
   912   913      0   0   0
   912   922      0   0   0
   912    12      1   0   0
   912    23      1   0   0
   913   802      0   0   0
   913   813      0   0   0
   913   903      0   0   0
   913   912      0   0   0
   913   914      0   0   0
   913   923      0   0   0
   913    13      1   0   0
   913    24      1   0   0
   914   803      0   0   0
   914   814      0   0   0
   914   904      0   0   0
   914   913      0   0   0
   914   915      0   0   0
   914   924      0   0   0
   914    14      1   0   0
   914    25      1   0   0
   915   804      0   0   0
   915   815      0   0   0
   915   905      0   0   0
   915   914      0   0   0
   915   916      0   0   0
   915   925      0   0   0
   915    15      1   0   0
   915    26      1   0   0
   916   805      0   0   0
   916   816      0   0   0
   916   906      0   0   0
   916   915      0   0   0
   916   917      0   0   0
   916   926      0   0   0
   916    16      1   0   0
   916    27      1   0   0
   917   806      0   0   0
   917   817      0   0   0
   917   907      0   0   0
   917   916      0   0   0
   917   918      0   0   0
   917   927      0   0   0
   917    17      1   0   0
   917    28      1   0   0
   918   807      0   0   0
   918   818      0   0   0
   918   908      0   0   0
   918   917      0   0   0
   918   919      0   0   0
   918   928      0   0   0
   918    18      1   0   0
   918    29      1   0   0
   919   808      0   0   0
   919   819      0   0   0
   919   909      0   0   0
   919   918      0   0   0
   919   920      0   0   0
   919   929      0   0   0
   919    19      1   0   0
   919    30      1   0   0
   920   809      0   0   0
   920   820      0   0   0
   920   910      0   0   0
   920   919      0   0   0
   920   930      0   0   0
   920    20      1   0   0
   920   911      0   0   1
   920    21      1   0   1
   921   821      0   0   0
   921   911      0   0   0
   921   922      0   0   0
   921   931      0   0   0
   921    21      1   0   0
   921    32      1   0   0
   921   820      0   0  -1
   921   930      0   0  -1
   922   811      0   0   0
   922   822      0   0   0
   922   912      0   0   0
   922   921      0   0   0
   922   923      0   0   0
   922   932      0   0   0
   922    22      1   0   0
   922    33      1   0   0
   923   812      0   0   0
   923   823      0   0   0
   923   913      0   0   0
   923   922      0   0   0
   923   924      0   0   0
   923   933      0   0   0
   923    23      1   0   0
   923    34      1   0   0
   924   813      0   0   0
   924   824      0   0   0
   924   914      0   0   0
   924   923      0   0   0
   924   925      0   0   0
   924   934      0   0   0
   924    24      1   0   0
   924    35      1   0   0
   925   814      0   0   0
   925   825      0   0   0
   925   915      0   0   0
   925   924      0   0   0
   925   926      0   0   0
   925   935      0   0   0
   925    25      1   0   0
   925    36      1   0   0
   926   815      0   0   0
   926   826      0   0   0
   926   916      0   0   0
   926   925      0   0   0
   926   927      0   0   0
   926   936      0   0   0
   926    26      1   0   0
   926    37      1   0   0
   927   816      0   0   0
   927   827      0   0   0
   927   917      0   0   0
   927   926      0   0   0
   927   928      0   0   0
   927   937      0   0   0
   927    27      1   0   0
   927    38      1   0   0
   928   817      0   0   0
   928   828      0   0   0
   928   918      0   0   0
   928   927      0   0   0
   928   929      0   0   0
   928   938      0   0   0
   928    28      1   0   0
   928    39      1   0   0
   929   818      0   0   0
   929   829      0   0   0
   929   919      0   0   0
   929   928      0   0   0
   929   930      0   0   0
   929   939      0   0   0
   929    29      1   0   0
   929    40      1   0   0
   930   819      0   0   0
   930   830      0   0   0
   930   920      0   0   0
   930   929      0   0   0
   930   940      0   0   0
   930    30      1   0   0
   930   921      0   0   1
   930    31      1   0   1
   931   831      0   0   0
   931   921      0   0   0
   931   932      0   0   0
   931   941      0   0   0
   931    31      1   0   0
   931    42      1   0   0
   931   830      0   0  -1
   931   940      0   0  -1
   932   821      0   0   0
   932   832      0   0   0
   932   922      0   0   0
   932   931      0   0   0
   932   933      0   0   0
   932   942      0   0   0
   932    32      1   0   0
   932    43      1   0   0
   933   822      0   0   0
   933   833      0   0   0
   933   923      0   0   0
   933   932      0   0   0
   933   934      0   0   0
   933   943      0   0   0
   933    33      1   0   0
   933    44      1   0   0
   934   823      0   0   0
   934   834      0   0   0
   934   924      0   0   0
   934   933      0   0   0
   934   935      0   0   0
   934   944      0   0   0
   934    34      1   0   0
   934    45      1   0   0
   935   824      0   0   0
   935   835      0   0   0
   935   925      0   0   0
   935   934      0   0   0
   935   936      0   0   0
   935   945      0   0   0
   935    35      1   0   0
   935    46      1   0   0
   936   825      0   0   0
   936   836      0   0   0
   936   926      0   0   0
   936   935      0   0   0
   936   937      0   0   0
   936   946      0   0   0
   936    36      1   0   0
   936    47      1   0   0
   937   826      0   0   0
   937   837      0   0   0
   937   927      0   0   0
   937   936      0   0   0
   937   938      0   0   0
   937   947      0   0   0
   937    37      1   0   0
   937    48      1   0   0
   938   827      0   0   0
   938   838      0   0   0
   938   928      0   0   0
   938   937      0   0   0
   938   939      0   0   0
   938   948      0   0   0
   938    38      1   0   0
   938    49      1   0   0
   939   828      0   0   0
   939   839      0   0   0
   939   929      0   0   0
   939   938      0   0   0
   939   940      0   0   0
   939   949      0   0   0
   939    39      1   0   0
   939    50      1   0   0
   940   829      0   0   0
   940   840      0   0   0
   940   930      0   0   0
   940   939      0   0   0
   940   950      0   0   0
   940    40      1   0   0
   940   931      0   0   1
   940    41      1   0   1
   941   841      0   0   0
   941   931      0   0   0
   941   942      0   0   0
   941   951      0   0   0
   941    41      1   0   0
   941    52      1   0   0
   941   840      0   0  -1
   941   950      0   0  -1
   942   831      0   0   0
   942   842      0   0   0
   942   932      0   0   0
   942   941      0   0   0
   942   943      0   0   0
   942   952      0   0   0
   942    42      1   0   0
   942    53      1   0   0
   943   832      0   0   0
   943   843      0   0   0
   943   933      0   0   0
   943   942      0   0   0
   943   944      0   0   0
   943   953      0   0   0
   943    43      1   0   0
   943    54      1   0   0
   944   833      0   0   0
   944   844      0   0   0
   944   934      0   0   0
   944   943      0   0   0
   944   945      0   0   0
   944   954      0   0   0
   944    44      1   0   0
   944    55      1   0   0
   945   834      0   0   0
   945   845      0   0   0
   945   935      0   0   0
   945   944      0   0   0
   945   946      0   0   0
   945   955      0   0   0
   945    45      1   0   0
   945    56      1   0   0
   946   835      0   0   0
   946   846      0   0   0
   946   936      0   0   0
   946   945      0   0   0
   946   947      0   0   0
   946   956      0   0   0
   946    46      1   0   0
   946    57      1   0   0
   947   836      0   0   0
   947   847      0   0   0
   947   937      0   0   0
   947   946      0   0   0
   947   948      0   0   0
   947   957      0   0   0
   947    47      1   0   0
   947    58      1   0   0
   948   837      0   0   0
   948   848      0   0   0
   948   938      0   0   0
   948   947      0   0   0
   948   949      0   0   0
   948   958      0   0   0
   948    48      1   0   0
   948    59      1   0   0
   949   838      0   0   0
   949   849      0   0   0
   949   939      0   0   0
   949   948      0   0   0
   949   950      0   0   0
   949   959      0   0   0
   949    49      1   0   0
   949    60      1   0   0
   950   839      0   0   0
   950   850      0   0   0
   950   940      0   0   0
   950   949      0   0   0
   950   960      0   0   0
   950    50      1   0   0
   950   941      0   0   1
   950    51      1   0   1
   951   851      0   0   0
   951   941      0   0   0
   951   952      0   0   0
   951   961      0   0   0
   951    51      1   0   0
   951    62      1   0   0
   951   850      0   0  -1
   951   960      0   0  -1
   952   841      0   0   0
   952   852      0   0   0
   952   942      0   0   0
   952   951      0   0   0
   952   953      0   0   0
   952   962      0   0   0
   952    52      1   0   0
   952    63      1   0   0
   953   842      0   0   0
   953   853      0   0   0
   953   943      0   0   0
   953   952      0   0   0
   953   954      0   0   0
   953   963      0   0   0
   953    53      1   0   0
   953    64      1   0   0
   954   843      0   0   0
   954   854      0   0   0
   954   944      0   0   0
   954   953      0   0   0
   954   955      0   0   0
   954   964      0   0   0
   954    54      1   0   0
   954    65      1   0   0
   955   844      0   0   0
   955   855      0   0   0
   955   945      0   0   0
   955   954      0   0   0
   955   956      0   0   0
   955   965      0   0   0
   955    55      1   0   0
   955    66      1   0   0
   956   845      0   0   0
   956   856      0   0   0
   956   946      0   0   0
   956   955      0   0   0
   956   957      0   0   0
   956   966      0   0   0
   956    56      1   0   0
   956    67      1   0   0
   957   846      0   0   0
   957   857      0   0   0
   957   947      0   0   0
   957   956      0   0   0
   957   958      0   0   0
   957   967      0   0   0
   957    57      1   0   0
   957    68      1   0   0
   958   847      0   0   0
   958   858      0   0   0
   958   948      0   0   0
   958   957      0   0   0
   958   959      0   0   0
   958   968      0   0   0
   958    58      1   0   0
   958    69      1   0   0
   959   848      0   0   0
   959   859      0   0   0
   959   949      0   0   0
   959   958      0   0   0
   959   960      0   0   0
   959   969      0   0   0
   959    59      1   0   0
   959    70      1   0   0
   960   849      0   0   0
   960   860      0   0   0
   960   950      0   0   0
   960   959      0   0   0
   960   970      0   0   0
   960    60      1   0   0
   960   951      0   0   1
   960    61      1   0   1
   961   861      0   0   0
   961   951      0   0   0
   961   962      0   0   0
   961   971      0   0   0
   961    61      1   0   0
   961    72      1   0   0
   961   860      0   0  -1
   961   970      0   0  -1
   962   851      0   0   0
   962   862      0   0   0
   962   952      0   0   0
   962   961      0   0   0
   962   963      0   0   0
   962   972      0   0   0
   962    62      1   0   0
   962    73      1   0   0
   963   852      0   0   0
   963   863      0   0   0
   963   953      0   0   0
   963   962      0   0   0
   963   964      0   0   0
   963   973      0   0   0
   963    63      1   0   0
   963    74      1   0   0
   964   853      0   0   0
   964   864      0   0   0
   964   954      0   0   0
   964   963      0   0   0
   964   965      0   0   0
   964   974      0   0   0
   964    64      1   0   0
   964    75      1   0   0
   965   854      0   0   0
   965   865      0   0   0
   965   955      0   0   0
   965   964      0   0   0
   965   966      0   0   0
   965   975      0   0   0
   965    65      1   0   0
   965    76      1   0   0
   966   855      0   0   0
   966   866      0   0   0
   966   956      0   0   0
   966   965      0   0   0
   966   967      0   0   0
   966   976      0   0   0
   966    66      1   0   0
   966    77      1   0   0
   967   856      0   0   0
   967   867      0   0   0
   967   957      0   0   0
   967   966      0   0   0
   967   968      0   0   0
   967   977      0   0   0
   967    67      1   0   0
   967    78      1   0   0
   968   857      0   0   0
   968   868      0   0   0
   968   958      0   0   0
   968   967      0   0   0
   968   969      0   0   0
   968   978      0   0   0
   968    68      1   0   0
   968    79      1   0   0
   969   858      0   0   0
   969   869      0   0   0
   969   959      0   0   0
   969   968      0   0   0
   969   970      0   0   0
   969   979      0   0   0
   969    69      1   0   0
   969    80      1   0   0
   970   859      0   0   0
   970   870      0   0   0
   970   960      0   0   0
   970   969      0   0   0
   970   980      0   0   0
   970    70      1   0   0
   970   961      0   0   1
   970    71      1   0   1
   971   871      0   0   0
   971   961      0   0   0
   971   972      0   0   0
   971   981      0   0   0
   971    71      1   0   0
   971    82      1   0   0
   971   870      0   0  -1
   971   980      0   0  -1
   972   861      0   0   0
   972   872      0   0   0
   972   962      0   0   0
   972   971      0   0   0
   972   973      0   0   0
   972   982      0   0   0
   972    72      1   0   0
   972    83      1   0   0
   973   862      0   0   0
   973   873      0   0   0
   973   963      0   0   0
   973   972      0   0   0
   973   974      0   0   0
   973   983      0   0   0
   973    73      1   0   0
   973    84      1   0   0
   974   863      0   0   0
   974   874      0   0   0
   974   964      0   0   0
   974   973      0   0   0
   974   975      0   0   0
   974   984      0   0   0
   974    74      1   0   0
   974    85      1   0   0
   975   864      0   0   0
   975   875      0   0   0
   975   965      0   0   0
   975   974      0   0   0
   975   976      0   0   0
   975   985      0   0   0
   975    75      1   0   0
   975    86      1   0   0
   976   865      0   0   0
   976   876      0   0   0
   976   966      0   0   0
   976   975      0   0   0
   976   977      0   0   0
   976   986      0   0   0
   976    76      1   0   0
   976    87      1   0   0
   977   866      0   0   0
   977   877      0   0   0
   977   967      0   0   0
   977   976      0   0   0
   977   978      0   0   0
   977   987      0   0   0
   977    77      1   0   0
   977    88      1   0   0
   978   867      0   0   0
   978   878      0   0   0
   978   968      0   0   0
   978   977      0   0   0
   978   979      0   0   0
   978   988      0   0   0
   978    78      1   0   0
   978    89      1   0   0
   979   868      0   0   0
   979   879      0   0   0
   979   969      0   0   0
   979   978      0   0   0
   979   980      0   0   0
   979   989      0   0   0
   979    79      1   0   0
   979    90      1   0   0
   980   869      0   0   0
   980   880      0   0   0
   980   970      0   0   0
   980   979      0   0   0
   980   990      0   0   0
   980    80      1   0   0
   980   971      0   0   1
   980    81      1   0   1
   981   881      0   0   0
   981   971      0   0   0
   981   982      0   0   0
   981   991      0   0   0
   981    81      1   0   0
   981    92      1   0   0
   981   880      0   0  -1
   981   990      0   0  -1
   982   871      0   0   0
   982   882      0   0   0
   982   972      0   0   0
   982   981      0   0   0
   982   983      0   0   0
   982   992      0   0   0
   982    82      1   0   0
   982    93      1   0   0
   983   872      0   0   0
   983   883      0   0   0
   983   973      0   0   0
   983   982      0   0   0
   983   984      0   0   0
   983   993      0   0   0
   983    83      1   0   0
   983    94      1   0   0
   984   873      0   0   0
   984   884      0   0   0
   984   974      0   0   0
   984   983      0   0   0
   984   985      0   0   0
   984   994      0   0   0
   984    84      1   0   0
   984    95      1   0   0
   985   874      0   0   0
   985   885      0   0   0
   985   975      0   0   0
   985   984      0   0   0
   985   986      0   0   0
   985   995      0   0   0
   985    85      1   0   0
   985    96      1   0   0
   986   875      0   0   0
   986   886      0   0   0
   986   976      0   0   0
   986   985      0   0   0
   986   987      0   0   0
   986   996      0   0   0
   986    86      1   0   0
   986    97      1   0   0
   987   876      0   0   0
   987   887      0   0   0
   987   977      0   0   0
   987   986      0   0   0
   987   988      0   0   0
   987   997      0   0   0
   987    87      1   0   0
   987    98      1   0   0
   988   877      0   0   0
   988   888      0   0   0
   988   978      0   0   0
   988   987      0   0   0
   988   989      0   0   0
   988   998      0   0   0
   988    88      1   0   0
   988    99      1   0   0
   989   878      0   0   0
   989   889      0   0   0
   989   979      0   0   0
   989   988      0   0   0
   989   990      0   0   0
   989   999      0   0   0
   989    89      1   0   0
   989   100      1   0   0
   990   879      0   0   0
   990   890      0   0   0
   990   980      0   0   0
   990   989      0   0   0
   990  1000      0   0   0
   990    90      1   0   0
   990   981      0   0   1
   990    91      1   0   1
   991   891      0   0   0
   991   981      0   0   0
   991   992      0   0   0
   991    91      1   0   0
   991   901      0   1   0
   991   890      0   0  -1
   991  1000      0   0  -1
   991     2      1   1   0
   992   881      0   0   0
   992   892      0   0   0
   992   982      0   0   0
   992   991      0   0   0
   992   993      0   0   0
   992    92      1   0   0
   992   902      0   1   0
   992     3      1   1   0
   993   882      0   0   0
   993   893      0   0   0
   993   983      0   0   0
   993   992      0   0   0
   993   994      0   0   0
   993    93      1   0   0
   993   903      0   1   0
   993     4      1   1   0
   994   883      0   0   0
   994   894      0   0   0
   994   984      0   0   0
   994   993      0   0   0
   994   995      0   0   0
   994    94      1   0   0
   994   904      0   1   0
   994     5      1   1   0
   995   884      0   0   0
   995   895      0   0   0
   995   985      0   0   0
   995   994      0   0   0
   995   996      0   0   0
   995    95      1   0   0
   995   905      0   1   0
   995     6      1   1   0
   996   885      0   0   0
   996   896      0   0   0
   996   986      0   0   0
   996   995      0   0   0
   996   997      0   0   0
   996    96      1   0   0
   996   906      0   1   0
   996     7      1   1   0
   997   886      0   0   0
   997   897      0   0   0
   997   987      0   0   0
   997   996      0   0   0
   997   998      0   0   0
   997    97      1   0   0
   997   907      0   1   0
   997     8      1   1   0
   998   887      0   0   0
   998   898      0   0   0
   998   988      0   0   0
   998   997      0   0   0
   998   999      0   0   0
   998    98      1   0   0
   998   908      0   1   0
   998     9      1   1   0
   999   888      0   0   0
   999   899      0   0   0
   999   989      0   0   0
   999   998      0   0   0
   999  1000      0   0   0
   999    99      1   0   0
   999   909      0   1   0
   999    10      1   1   0
  1000   889      0   0   0
  1000   900      0   0   0
  1000   990      0   0   0
  1000   999      0   0   0
  1000     1      1   1   1
  1000   100      1   0   0
  1000   910      0   1   0
  1000   991      0   0   1
end nnkpts

begin exclude_bands
   5
   1
   2
   3
   4
   5
end exclude_bands
