
     Program PWSCF v.7.2 starts on 18Oct2023 at 12:47:49 

     This program is part of the open-source Quantum ESPRESSO suite
     for quantum simulation of materials; please cite
         "P. Giannozzi et al., J. Phys.:Condens. Matter 21 395502 (2009);
         "P. Giannozzi et al., J. Phys.:Condens. Matter 29 465901 (2017);
         "P. Giannozzi et al., J. Chem. Phys. 152 154105 (2020);
          URL http://www.quantum-espresso.org", 
     in publications or presentations arising from this work. More details at
     http://www.quantum-espresso.org/quote

     Parallel version (MPI), running on     4 processors

     MPI processes distributed on     1 nodes
     8968 MiB available memory on the printing compute node when the environment starts

     Waiting for input...
     Reading input from standard input

     Current dimensions of program PWSCF are:
     Max number of different atomic species (ntypx) = 10
     Max number of k-points (npk) =  40000
     Max angular momentum in pseudopotentials (lmaxx) =  4
     file Ga.pbe-dn-kjpaw_psl.0.2.UPF: wavefunction(s)  4S 3D renormalized

     R & G space division:  proc/nbgrp/npool/nimage =       4
     Subspace diagonalization in iterative solution of the eigenvalue problem:
     a serial algorithm will be used


     Parallelization info
     --------------------
     sticks:   dense  smooth     PW     G-vecs:    dense   smooth      PW
     Min         192     192     60                 3589     3589     610
     Max         193     193     61                 3593     3593     613
     Sum         769     769    241                14361    14361    2445

     Using Slab Decomposition



     bravais-lattice index     =            2
     lattice parameter (alat)  =      10.6800  a.u.
     unit-cell volume          =     304.5466 (a.u.)^3
     number of atoms/cell      =            2
     number of atomic types    =            2
     number of electrons       =        18.00
     number of Kohn-Sham states=           13
     kinetic-energy cutoff     =      50.0000  Ry
     charge density cutoff     =     200.0000  Ry
     scf convergence threshold =      1.0E-08
     mixing beta               =       0.7000
     number of iterations used =            8  plain     mixing
     Exchange-correlation= SLA  PW   PBX  PBC
                           (   1   4   3   4   0   0   0)

     celldm(1)=  10.680000  celldm(2)=   0.000000  celldm(3)=   0.000000
     celldm(4)=   0.000000  celldm(5)=   0.000000  celldm(6)=   0.000000

     crystal axes: (cart. coord. in units of alat)
               a(1) = (  -0.500000   0.000000   0.500000 )  
               a(2) = (   0.000000   0.500000   0.500000 )  
               a(3) = (  -0.500000   0.500000   0.000000 )  

     reciprocal axes: (cart. coord. in units 2 pi/alat)
               b(1) = ( -1.000000 -1.000000  1.000000 )  
               b(2) = (  1.000000  1.000000  1.000000 )  
               b(3) = ( -1.000000  1.000000 -1.000000 )  


     PseudoPot. # 1 for Ga read from file:
     ../pseudo/Ga.pbe-dn-kjpaw_psl.0.2.UPF
     MD5 check sum: 5f391ec2d6164a6cbafefcd1a4b12453
     Pseudo is Projector augmented-wave + core cor, Zval = 13.0
     Generated using "atomic" code by A. Dal Corso  v.5.0.2 svn rev. 9415
     Shape of augmentation charge: BESSEL
     Using radial grid of 1205 points,  6 beta functions with: 
                l(1) =   0
                l(2) =   0
                l(3) =   1
                l(4) =   1
                l(5) =   2
                l(6) =   2
     Q(r) pseudized with 0 coefficients 


     PseudoPot. # 2 for As read from file:
     ../pseudo/As.pbe-n-kjpaw_psl.0.2.UPF
     MD5 check sum: 92d01df2a4d18767ffee083d23ecaa3e
     Pseudo is Projector augmented-wave + core cor, Zval =  5.0
     Generated using "atomic" code by A. Dal Corso  v.5.0.2 svn rev. 9415
     Shape of augmentation charge: PSQ
     Using radial grid of 1209 points,  4 beta functions with: 
                l(1) =   0
                l(2) =   0
                l(3) =   1
                l(4) =   1
     Q(r) pseudized with 0 coefficients 


     atomic species   valence    mass     pseudopotential
        Ga            13.00    68.92600     Ga( 1.00)
        As             5.00    74.92200     As( 1.00)

     24 Sym. Ops. (no inversion) found



   Cartesian axes

     site n.     atom                  positions (alat units)
         1           Ga  tau(   1) = (   0.0000000   0.0000000   0.0000000  )
         2           As  tau(   2) = (  -0.2500000   0.2500000   0.2500000  )

     number of k points=    29  Methfessel-Paxton smearing, width (Ry)=  0.0100
                       cart. coord. in units 2pi/alat
        k(    1) = (   0.0000000   0.0000000   0.0000000), wk =   0.0039062
        k(    2) = (  -0.1250000   0.1250000  -0.1250000), wk =   0.0312500
        k(    3) = (  -0.2500000   0.2500000  -0.2500000), wk =   0.0312500
        k(    4) = (  -0.3750000   0.3750000  -0.3750000), wk =   0.0312500
        k(    5) = (   0.5000000  -0.5000000   0.5000000), wk =   0.0156250
        k(    6) = (   0.0000000   0.2500000   0.0000000), wk =   0.0234375
        k(    7) = (  -0.1250000   0.3750000  -0.1250000), wk =   0.0937500
        k(    8) = (  -0.2500000   0.5000000  -0.2500000), wk =   0.0937500
        k(    9) = (   0.6250000  -0.3750000   0.6250000), wk =   0.0937500
        k(   10) = (   0.5000000  -0.2500000   0.5000000), wk =   0.0937500
        k(   11) = (   0.3750000  -0.1250000   0.3750000), wk =   0.0937500
        k(   12) = (   0.2500000   0.0000000   0.2500000), wk =   0.0468750
        k(   13) = (   0.0000000   0.5000000   0.0000000), wk =   0.0234375
        k(   14) = (  -0.1250000   0.6250000  -0.1250000), wk =   0.0937500
        k(   15) = (   0.7500000  -0.2500000   0.7500000), wk =   0.0937500
        k(   16) = (   0.6250000  -0.1250000   0.6250000), wk =   0.0937500
        k(   17) = (   0.5000000   0.0000000   0.5000000), wk =   0.0468750
        k(   18) = (   0.0000000   0.7500000   0.0000000), wk =   0.0234375
        k(   19) = (   0.8750000  -0.1250000   0.8750000), wk =   0.0937500
        k(   20) = (   0.7500000   0.0000000   0.7500000), wk =   0.0468750
        k(   21) = (   0.0000000  -1.0000000   0.0000000), wk =   0.0117188
        k(   22) = (  -0.2500000   0.5000000   0.0000000), wk =   0.0937500
        k(   23) = (   0.6250000  -0.3750000   0.8750000), wk =   0.1875000
        k(   24) = (   0.5000000  -0.2500000   0.7500000), wk =   0.0937500
        k(   25) = (   0.7500000  -0.2500000   1.0000000), wk =   0.0937500
        k(   26) = (   0.6250000  -0.1250000   0.8750000), wk =   0.1875000
        k(   27) = (   0.5000000   0.0000000   0.7500000), wk =   0.0937500
        k(   28) = (  -0.2500000  -1.0000000   0.0000000), wk =   0.0468750
        k(   29) = (  -0.5000000  -1.0000000   0.0000000), wk =   0.0234375

     Dense  grid:    14361 G-vectors     FFT dimensions: (  36,  36,  36)

     Estimated max dynamical RAM per process >      18.58 MB

     Estimated total dynamical RAM >      74.31 MB

     Check: negative core charge=   -0.000007

     Initial potential from superposition of free atoms

     starting charge      17.9968, renormalised to      18.0000
     Starting wfcs are   13 randomized atomic wfcs
     Checking if some PAW data can be deallocated... 

     total cpu time spent up to now is        0.9 secs

     Self-consistent Calculation

     iteration #  1     ecut=    50.00 Ry     beta= 0.70
     Davidson diagonalization with overlap
     ethr =  1.00E-02,  avg # of iterations =  3.7

     Threshold (ethr) on eigenvalues was too large:
     Diagonalizing with lowered threshold

     Davidson diagonalization with overlap
     ethr =  2.75E-04,  avg # of iterations =  2.0

     total cpu time spent up to now is        2.1 secs

     total energy              =    -453.95660488 Ry
     estimated scf accuracy    <       0.05009139 Ry

     iteration #  2     ecut=    50.00 Ry     beta= 0.70
     Davidson diagonalization with overlap
     ethr =  2.78E-04,  avg # of iterations =  2.0

     total cpu time spent up to now is        2.7 secs

     total energy              =    -453.96394370 Ry
     estimated scf accuracy    <       0.00818452 Ry

     iteration #  3     ecut=    50.00 Ry     beta= 0.70
     Davidson diagonalization with overlap
     ethr =  4.55E-05,  avg # of iterations =  2.2

     total cpu time spent up to now is        3.4 secs

     total energy              =    -453.96615561 Ry
     estimated scf accuracy    <       0.00088316 Ry

     iteration #  4     ecut=    50.00 Ry     beta= 0.70
     Davidson diagonalization with overlap
     ethr =  4.91E-06,  avg # of iterations =  2.6

     total cpu time spent up to now is        4.1 secs

     total energy              =    -453.96641914 Ry
     estimated scf accuracy    <       0.00004571 Ry

     iteration #  5     ecut=    50.00 Ry     beta= 0.70
     Davidson diagonalization with overlap
     ethr =  2.54E-07,  avg # of iterations =  2.0

     total cpu time spent up to now is        4.7 secs

     total energy              =    -453.96645007 Ry
     estimated scf accuracy    <       0.00000047 Ry

     iteration #  6     ecut=    50.00 Ry     beta= 0.70
     Davidson diagonalization with overlap
     ethr =  2.59E-09,  avg # of iterations =  2.6

     total cpu time spent up to now is        5.4 secs

     total energy              =    -453.96645017 Ry
     estimated scf accuracy    <       0.00000011 Ry

     iteration #  7     ecut=    50.00 Ry     beta= 0.70
     Davidson diagonalization with overlap
     ethr =  5.89E-10,  avg # of iterations =  3.0

     total cpu time spent up to now is        6.1 secs

     total energy              =    -453.96645031 Ry
     estimated scf accuracy    <       0.00000003 Ry

     iteration #  8     ecut=    50.00 Ry     beta= 0.70
     Davidson diagonalization with overlap
     ethr =  1.47E-10,  avg # of iterations =  2.0

     total cpu time spent up to now is        6.8 secs

     End of self-consistent calculation

          k = 0.0000 0.0000 0.0000 (  1837 PWs)   bands (ev):

    -7.1818  -7.1818  -7.1818  -7.1030  -7.1030  -5.1117   7.6299   7.6299
     7.6299   8.1507  11.3500  11.3500  11.3500

          k =-0.1250 0.1250-0.1250 (  1829 PWs)   bands (ev):

    -7.1951  -7.1782  -7.1782  -7.1031  -7.1031  -4.9294   5.6610   7.3917
     7.3917   9.2221  11.7021  11.7021  11.8260

          k =-0.2500 0.2500-0.2500 (  1829 PWs)   bands (ev):

    -7.2242  -7.1705  -7.1705  -7.1024  -7.1024  -4.4203   3.4790   6.9472
     6.9472   9.0754  12.2235  12.2235  13.6004

          k =-0.3750 0.3750-0.3750 (  1838 PWs)   bands (ev):

    -7.2502  -7.1644  -7.1644  -7.1000  -7.1000  -3.7380   1.7273   6.6054
     6.6054   8.7460  12.3091  12.3091  15.3107

          k = 0.5000-0.5000 0.5000 (  1802 PWs)   bands (ev):

    -7.2603  -7.1624  -7.1624  -7.0984  -7.0984  -3.3488   0.9728   6.4827
     6.4827   8.6208  12.2562  12.2562  15.4448

          k = 0.0000 0.2500 0.0000 (  1828 PWs)   bands (ev):

    -7.2027  -7.1748  -7.1748  -7.1060  -7.1009  -4.8688   5.6347   6.9670
     6.9670   9.9912  10.7189  12.3201  12.3201

          k =-0.1250 0.3750-0.1250 (  1822 PWs)   bands (ev):

    -7.2258  -7.1683  -7.1667  -7.1082  -7.0990  -4.4670   3.9891   6.4541
     6.4755  10.1612  11.0617  13.0660  13.1720

          k =-0.2500 0.5000-0.2500 (  1840 PWs)   bands (ev):

    -7.2495  -7.1629  -7.1600  -7.1072  -7.0973  -3.8253   2.2291   5.8531
     6.1830   9.8797  11.7915  13.2048  13.8507

          k = 0.6250-0.3750 0.6250 (  1815 PWs)   bands (ev):

    -7.2624  -7.1603  -7.1576  -7.1031  -7.0976  -3.2749   1.1290   5.4213
     6.1739   9.6930  11.9646  12.9331  15.3918

          k = 0.5000-0.2500 0.5000 (  1811 PWs)   bands (ev):

    -7.2587  -7.1606  -7.1596  -7.1013  -7.1002  -3.4132   1.3840   5.2833
     6.4418   9.7264  12.1806  12.6792  15.4059

          k = 0.3750-0.1250 0.3750 (  1831 PWs)   bands (ev):

    -7.2398  -7.1660  -7.1639  -7.1049  -7.1002  -4.0570   2.7781   5.5133
     6.9044   9.9390  12.3717  12.3799  13.7715

          k = 0.2500 0.0000 0.2500 (  1839 PWs)   bands (ev):

    -7.2139  -7.1742  -7.1707  -7.1052  -7.1014  -4.6373   4.4835   6.2574
     7.3483   9.9240  11.7092  11.8323  13.0322

          k = 0.0000 0.5000 0.0000 (  1828 PWs)   bands (ev):

    -7.2448  -7.1576  -7.1576  -7.1146  -7.0959  -4.1853   3.5315   5.9297
     5.9297   9.5989  10.9003  14.2518  14.2518

          k =-0.1250 0.6250-0.1250 (  1815 PWs)   bands (ev):

    -7.2631  -7.1513  -7.1494  -7.1170  -7.0938  -3.6398   2.3516   5.2015
     5.5982   9.7344  10.9540  14.0751  14.8445

          k = 0.7500-0.2500 0.7500 (  1809 PWs)   bands (ev):

    -7.2720  -7.1515  -7.1463  -7.1136  -7.0949  -3.0599   1.3416   4.3797
     5.5804   9.8223  12.3371  13.8797  14.5968

          k = 0.6250-0.1250 0.6250 (  1814 PWs)   bands (ev):

    -7.2694  -7.1546  -7.1487  -7.1073  -7.0998  -2.9668   1.2130   3.9640
     5.8778  10.0297  13.0875  14.0824  15.0072

          k = 0.5000 0.0000 0.5000 (  1812 PWs)   bands (ev):

    -7.2573  -7.1585  -7.1564  -7.1044  -7.1021  -3.4735   1.9714   4.2501
     6.4024  10.3561  13.2481  13.2962  13.4961

          k = 0.0000 0.7500 0.0000 (  1796 PWs)   bands (ev):

    -7.2793  -7.1399  -7.1399  -7.1242  -7.0908  -3.2250   1.7056   5.1972
     5.1972   9.0758   9.9145  16.3927  16.3927

          k = 0.8750-0.1250 0.8750 (  1800 PWs)   bands (ev):

    -7.2857  -7.1391  -7.1361  -7.1235  -7.0909  -2.7681   1.0671   4.5016
     5.1112   9.3215  10.2886  16.1431  16.6346

          k = 0.7500 0.0000 0.7500 (  1822 PWs)   bands (ev):

    -7.2805  -7.1462  -7.1392  -7.1166  -7.0953  -2.6457   0.9817   3.7532
     5.3608   9.5788  12.2676  15.6112  15.7118

          k = 0.0000-1.0000 0.0000 (  1772 PWs)   bands (ev):

    -7.2920  -7.1323  -7.1323  -7.1284  -7.0887  -2.6102   0.7965   4.9402
     4.9402   9.0810   9.2674  17.8260  17.8260

          k =-0.2500 0.5000 0.0000 (  1833 PWs)   bands (ev):

    -7.2464  -7.1612  -7.1584  -7.1108  -7.0972  -3.9912   2.9367   5.2195
     6.3223  10.6732  11.1537  12.9925  13.9721

          k = 0.6250-0.3750 0.8750 (  1815 PWs)   bands (ev):

    -7.2625  -7.1577  -7.1516  -7.1094  -7.0974  -3.3596   1.7235   4.5635
     5.8842  10.7133  11.8257  13.1673  14.5607

          k = 0.5000-0.2500 0.7500 (  1808 PWs)   bands (ev):

    -7.2686  -7.1570  -7.1492  -7.1069  -7.0986  -3.0065   1.1259   4.3893
     5.6814  10.6566  11.7947  13.9771  15.3451

          k = 0.7500-0.2500 1.0000 (  1807 PWs)   bands (ev):

    -7.2751  -7.1476  -7.1419  -7.1184  -7.0934  -3.1106   1.5682   4.5731
     5.1403  10.2677  10.8261  13.9234  16.3071

          k = 0.6250-0.1250 0.8750 (  1817 PWs)   bands (ev):

    -7.2776  -7.1502  -7.1394  -7.1145  -7.0964  -2.7134   1.0804   3.9510
     4.9621  10.6227  12.3392  13.5394  15.4946

          k = 0.5000 0.0000 0.7500 (  1823 PWs)   bands (ev):

    -7.2725  -7.1542  -7.1430  -7.1104  -7.0991  -2.8539   1.2495   3.8074
     5.3052  10.9659  12.8788  13.0631  15.3775

          k =-0.2500-1.0000 0.0000 (  1798 PWs)   bands (ev):

    -7.2859  -7.1412  -7.1354  -7.1211  -7.0923  -2.5808   0.8827   4.4749
     4.5664  10.1848  10.3761  15.8046  15.9959

          k =-0.5000-1.0000 0.0000 (  1800 PWs)   bands (ev):

    -7.2789  -7.1509  -7.1367  -7.1137  -7.0978  -2.5508   0.9803   4.0822
     4.2663  12.2498  12.3536  13.0628  13.6776

     the Fermi energy is     7.9153 ev

!    total energy              =    -453.96645032 Ry
     total all-electron energy =     -8410.098472 Ry
     estimated scf accuracy    <          4.1E-10 Ry
     smearing contrib. (-TS)   =       0.00000296 Ry
     internal energy E=F+TS    =    -453.96645328 Ry

     The total energy is F=E-TS. E is the sum of the following terms:
     one-electron contribution =    -120.20051755 Ry
     hartree contribution      =      45.03499146 Ry
     xc contribution           =     -50.87827983 Ry
     ewald contribution        =     -93.04446807 Ry
     one-center paw contrib.   =    -234.87817929 Ry

     convergence has been achieved in   8 iterations

     Forces acting on atoms (cartesian axes, Ry/au):

     atom    1 type  1   force =     0.00000000    0.00000000   -0.00000000
     atom    2 type  2   force =    -0.00000000   -0.00000000    0.00000000
     The non-local contrib.  to forces
     atom    1 type  1   force =     0.00000000   -0.00000000    0.00000000
     atom    2 type  2   force =     0.00000000    0.00000000   -0.00000000
     The ionic contribution  to forces
     atom    1 type  1   force =     0.00000000    0.00000000    0.00000000
     atom    2 type  2   force =    -0.00000000    0.00000000   -0.00000000
     The local contribution  to forces
     atom    1 type  1   force =    -0.00000000    0.00000000   -0.00000000
     atom    2 type  2   force =     0.00000000   -0.00000000   -0.00000000
     The core correction contribution to forces
     atom    1 type  1   force =     0.00000000    0.00000000   -0.00000000
     atom    2 type  2   force =     0.00000000   -0.00000000    0.00000000
     The Hubbard contrib.    to forces
     atom    1 type  1   force =     0.00000000    0.00000000    0.00000000
     atom    2 type  2   force =     0.00000000    0.00000000    0.00000000
     The SCF correction term to forces
     atom    1 type  1   force =    -0.00000000   -0.00000000   -0.00000000
     atom    2 type  2   force =    -0.00000000    0.00000000   -0.00000000

     Total force =     0.000000     Total SCF correction =     0.000000


     Computing stress (Cartesian axis) and pressure

          total   stress  (Ry/bohr**3)                   (kbar)     P=       40.52
   0.00027543  -0.00000000  -0.00000000           40.52       -0.00       -0.00
  -0.00000000   0.00027543   0.00000000           -0.00       40.52        0.00
  -0.00000000   0.00000000   0.00027543           -0.00        0.00       40.52


     Writing all to output data dir ./work/GaAs.save/

     init_run     :      0.55s CPU      0.58s WALL (       1 calls)
     electrons    :      5.55s CPU      6.06s WALL (       1 calls)
     forces       :      0.08s CPU      0.08s WALL (       1 calls)
     stress       :      0.33s CPU      0.33s WALL (       1 calls)

     Called by init_run:
     wfcinit      :      0.17s CPU      0.17s WALL (       1 calls)
     potinit      :      0.08s CPU      0.10s WALL (       1 calls)
     hinit0       :      0.27s CPU      0.28s WALL (       1 calls)

     Called by electrons:
     c_bands      :      4.09s CPU      4.39s WALL (       9 calls)
     sum_band     :      0.70s CPU      0.75s WALL (       9 calls)
     v_of_rho     :      0.04s CPU      0.04s WALL (       9 calls)
     newd         :      0.10s CPU      0.11s WALL (       9 calls)
     PAW_pot      :      0.70s CPU      0.71s WALL (       9 calls)
     mix_rho      :      0.00s CPU      0.00s WALL (       9 calls)

     Called by c_bands:
     init_us_2    :      0.08s CPU      0.09s WALL (     609 calls)
     init_us_2:cp :      0.08s CPU      0.09s WALL (     609 calls)
     cegterg      :      3.92s CPU      4.21s WALL (     261 calls)

     Called by *egterg:
     cdiaghg      :      0.15s CPU      0.16s WALL (     871 calls)
     h_psi        :      2.94s CPU      3.15s WALL (     929 calls)
     s_psi        :      0.19s CPU      0.21s WALL (     929 calls)
     g_psi        :      0.01s CPU      0.01s WALL (     639 calls)

     Called by h_psi:
     h_psi:calbec :      0.24s CPU      0.26s WALL (     929 calls)
     vloc_psi     :      2.50s CPU      2.67s WALL (     929 calls)
     add_vuspsi   :      0.19s CPU      0.21s WALL (     929 calls)

     General routines
     calbec       :      0.39s CPU      0.43s WALL (    1335 calls)
     fft          :      0.16s CPU      0.16s WALL (     125 calls)
     ffts         :      0.00s CPU      0.00s WALL (       9 calls)
     fftw         :      2.63s CPU      2.82s WALL (   21791 calls)

     Parallel routines

     PWSCF        :      6.80s CPU      8.31s WALL


   This run was terminated on:  12:47:58  18Oct2023            

=------------------------------------------------------------------------------=
   JOB DONE.
=------------------------------------------------------------------------------=
